n -t * -s 0  -x 0 -y 0 -Z 0 -z 20  -v circle -c black
n -t * -s 1  -x 0 -y 0 -Z 0 -z 20  -v circle -c black
n -t * -s 2  -x 0 -y 0 -Z 0 -z 20  -v circle -c black
n -t * -s 3  -x 0 -y 0 -Z 0 -z 20  -v circle -c black
n -t * -s 4  -x 0 -y 0 -Z 0 -z 20  -v circle -c black
n -t * -s 5  -x 0 -y 0 -Z 0 -z 20  -v circle -c black
n -t * -s 6  -x 0 -y 0 -Z 0 -z 20  -v circle -c black
V -t * -v 1.0a5 -a 0
W -t * -x 600 -y 400
A -t * -n 1 -p 0 -o 0x7fffffff -c 30 -a 1
A -t * -h 1 -m 1073741823 -s 0
c -t * -i 1 -n Blue
c -t * -i 2 -n Red
n -t 0.000000 -s 0 -x 100.000000 -y 300.000000 -U 0.000000 -V 0.000000 -T 0.000000
n -t 0.000000 -s 1 -x 100.000000 -y 100.000000 -U 0.000000 -V 0.000000 -T 0.000000
n -t 0.000000 -s 2 -x 300.000000 -y 300.000000 -U 0.000000 -V 0.000000 -T 0.000000
n -t 0.000000 -s 3 -x 500.000000 -y 300.000000 -U 0.000000 -V 0.000000 -T 0.000000
n -t 0.000000 -s 4 -x 300.000000 -y 200.000000 -U 0.000000 -V 0.000000 -T 0.000000
n -t 0.000000 -s 5 -x 300.000000 -y 100.000000 -U 0.000000 -V 0.000000 -T 0.000000
n -t 0.000000 -s 6 -x 500.000000 -y 100.000000 -U 0.000000 -V 0.000000 -T 0.000000
+ -t 0.477566739 -s 4 -d -1 -p message -e 32 -c 2 -a 0 -i 0 -k RTR 
- -t 0.477566739 -s 4 -d -1 -p message -e 32 -c 2 -a 0 -i 0 -k RTR
h -t 0.477566739 -s 4 -d -1 -p message -e 32 -c 2 -a 0 -i 0 -k RTR
+ -t 0.478181739 -s 4 -d -1 -p message -e 90 -c 2 -a 0 -i 0 -k MAC 
- -t 0.478181739 -s 4 -d -1 -p message -e 90 -c 2 -a 0 -i 0 -k MAC
h -t 0.478181739 -s 4 -d -1 -p message -e 90 -c 2 -a 0 -i 0 -k MAC
r -t 0.478902072 -s 2 -d -1 -p message -e 32 -c 2 -a 0 -i 0 -k MAC
r -t 0.478902072 -s 5 -d -1 -p message -e 32 -c 2 -a 0 -i 0 -k MAC
r -t 0.478902484 -s 1 -d -1 -p message -e 32 -c 2 -a 0 -i 0 -k MAC
r -t 0.478902484 -s 0 -d -1 -p message -e 32 -c 2 -a 0 -i 0 -k MAC
r -t 0.478902484 -s 3 -d -1 -p message -e 32 -c 2 -a 0 -i 0 -k MAC
r -t 0.478902484 -s 6 -d -1 -p message -e 32 -c 2 -a 0 -i 0 -k MAC
r -t 0.478927072 -s 2 -d -1 -p message -e 32 -c 2 -a 0 -i 0 -k RTR
r -t 0.478927072 -s 5 -d -1 -p message -e 32 -c 2 -a 0 -i 0 -k RTR
r -t 0.478927484 -s 1 -d -1 -p message -e 32 -c 2 -a 0 -i 0 -k RTR
r -t 0.478927484 -s 0 -d -1 -p message -e 32 -c 2 -a 0 -i 0 -k RTR
r -t 0.478927484 -s 3 -d -1 -p message -e 32 -c 2 -a 0 -i 0 -k RTR
r -t 0.478927484 -s 6 -d -1 -p message -e 32 -c 2 -a 0 -i 0 -k RTR
+ -t 0.619296198 -s 6 -d -1 -p message -e 32 -c 2 -a 0 -i 1 -k RTR 
- -t 0.619296198 -s 6 -d -1 -p message -e 32 -c 2 -a 0 -i 1 -k RTR
h -t 0.619296198 -s 6 -d -1 -p message -e 32 -c 2 -a 0 -i 1 -k RTR
+ -t 0.619531198 -s 6 -d -1 -p message -e 90 -c 2 -a 0 -i 1 -k MAC 
- -t 0.619531198 -s 6 -d -1 -p message -e 90 -c 2 -a 0 -i 1 -k MAC
h -t 0.619531198 -s 6 -d -1 -p message -e 90 -c 2 -a 0 -i 1 -k MAC
r -t 0.620251865 -s 3 -d -1 -p message -e 32 -c 2 -a 0 -i 1 -k MAC
r -t 0.620251865 -s 5 -d -1 -p message -e 32 -c 2 -a 0 -i 1 -k MAC
r -t 0.620251944 -s 4 -d -1 -p message -e 32 -c 2 -a 0 -i 1 -k MAC
r -t 0.620276865 -s 3 -d -1 -p message -e 32 -c 2 -a 0 -i 1 -k RTR
r -t 0.620276865 -s 5 -d -1 -p message -e 32 -c 2 -a 0 -i 1 -k RTR
r -t 0.620276944 -s 4 -d -1 -p message -e 32 -c 2 -a 0 -i 1 -k RTR
+ -t 0.626864932 -s 2 -d -1 -p message -e 32 -c 2 -a 0 -i 2 -k RTR 
- -t 0.626864932 -s 2 -d -1 -p message -e 32 -c 2 -a 0 -i 2 -k RTR
h -t 0.626864932 -s 2 -d -1 -p message -e 32 -c 2 -a 0 -i 2 -k RTR
+ -t 0.627139932 -s 2 -d -1 -p message -e 90 -c 2 -a 0 -i 2 -k MAC 
- -t 0.627139932 -s 2 -d -1 -p message -e 90 -c 2 -a 0 -i 2 -k MAC
h -t 0.627139932 -s 2 -d -1 -p message -e 90 -c 2 -a 0 -i 2 -k MAC
r -t 0.627860265 -s 4 -d -1 -p message -e 32 -c 2 -a 0 -i 2 -k MAC
r -t 0.627860598 -s 0 -d -1 -p message -e 32 -c 2 -a 0 -i 2 -k MAC
r -t 0.627860598 -s 5 -d -1 -p message -e 32 -c 2 -a 0 -i 2 -k MAC
r -t 0.627860598 -s 3 -d -1 -p message -e 32 -c 2 -a 0 -i 2 -k MAC
r -t 0.627885265 -s 4 -d -1 -p message -e 32 -c 2 -a 0 -i 2 -k RTR
r -t 0.627885598 -s 0 -d -1 -p message -e 32 -c 2 -a 0 -i 2 -k RTR
r -t 0.627885598 -s 5 -d -1 -p message -e 32 -c 2 -a 0 -i 2 -k RTR
r -t 0.627885598 -s 3 -d -1 -p message -e 32 -c 2 -a 0 -i 2 -k RTR
+ -t 0.886433621 -s 0 -d -1 -p message -e 32 -c 2 -a 0 -i 3 -k RTR 
- -t 0.886433621 -s 0 -d -1 -p message -e 32 -c 2 -a 0 -i 3 -k RTR
h -t 0.886433621 -s 0 -d -1 -p message -e 32 -c 2 -a 0 -i 3 -k RTR
+ -t 0.886948621 -s 0 -d -1 -p message -e 90 -c 2 -a 0 -i 3 -k MAC 
- -t 0.886948621 -s 0 -d -1 -p message -e 90 -c 2 -a 0 -i 3 -k MAC
h -t 0.886948621 -s 0 -d -1 -p message -e 90 -c 2 -a 0 -i 3 -k MAC
r -t 0.887669288 -s 1 -d -1 -p message -e 32 -c 2 -a 0 -i 3 -k MAC
r -t 0.887669288 -s 2 -d -1 -p message -e 32 -c 2 -a 0 -i 3 -k MAC
r -t 0.887669366 -s 4 -d -1 -p message -e 32 -c 2 -a 0 -i 3 -k MAC
r -t 0.887694288 -s 1 -d -1 -p message -e 32 -c 2 -a 0 -i 3 -k RTR
r -t 0.887694288 -s 2 -d -1 -p message -e 32 -c 2 -a 0 -i 3 -k RTR
r -t 0.887694366 -s 4 -d -1 -p message -e 32 -c 2 -a 0 -i 3 -k RTR
+ -t 1.286350959 -s 5 -d -1 -p message -e 32 -c 2 -a 0 -i 4 -k RTR 
- -t 1.286350959 -s 5 -d -1 -p message -e 32 -c 2 -a 0 -i 4 -k RTR
h -t 1.286350959 -s 5 -d -1 -p message -e 32 -c 2 -a 0 -i 4 -k RTR
+ -t 1.286965959 -s 5 -d -1 -p message -e 90 -c 2 -a 0 -i 4 -k MAC 
- -t 1.286965959 -s 5 -d -1 -p message -e 90 -c 2 -a 0 -i 4 -k MAC
h -t 1.286965959 -s 5 -d -1 -p message -e 90 -c 2 -a 0 -i 4 -k MAC
r -t 1.287686293 -s 4 -d -1 -p message -e 32 -c 2 -a 0 -i 4 -k MAC
r -t 1.287686626 -s 2 -d -1 -p message -e 32 -c 2 -a 0 -i 4 -k MAC
r -t 1.287686626 -s 1 -d -1 -p message -e 32 -c 2 -a 0 -i 4 -k MAC
r -t 1.287686626 -s 6 -d -1 -p message -e 32 -c 2 -a 0 -i 4 -k MAC
r -t 1.287711293 -s 4 -d -1 -p message -e 32 -c 2 -a 0 -i 4 -k RTR
r -t 1.287711626 -s 2 -d -1 -p message -e 32 -c 2 -a 0 -i 4 -k RTR
r -t 1.287711626 -s 1 -d -1 -p message -e 32 -c 2 -a 0 -i 4 -k RTR
r -t 1.287711626 -s 6 -d -1 -p message -e 32 -c 2 -a 0 -i 4 -k RTR
+ -t 1.606821973 -s 1 -d -1 -p message -e 32 -c 2 -a 0 -i 5 -k RTR 
- -t 1.606821973 -s 1 -d -1 -p message -e 32 -c 2 -a 0 -i 5 -k RTR
h -t 1.606821973 -s 1 -d -1 -p message -e 32 -c 2 -a 0 -i 5 -k RTR
+ -t 1.607256973 -s 1 -d -1 -p message -e 90 -c 2 -a 0 -i 5 -k MAC 
- -t 1.607256973 -s 1 -d -1 -p message -e 90 -c 2 -a 0 -i 5 -k MAC
h -t 1.607256973 -s 1 -d -1 -p message -e 90 -c 2 -a 0 -i 5 -k MAC
r -t 1.607977639 -s 0 -d -1 -p message -e 32 -c 2 -a 0 -i 5 -k MAC
r -t 1.607977639 -s 5 -d -1 -p message -e 32 -c 2 -a 0 -i 5 -k MAC
r -t 1.607977718 -s 4 -d -1 -p message -e 32 -c 2 -a 0 -i 5 -k MAC
r -t 1.608002639 -s 0 -d -1 -p message -e 32 -c 2 -a 0 -i 5 -k RTR
r -t 1.608002639 -s 5 -d -1 -p message -e 32 -c 2 -a 0 -i 5 -k RTR
r -t 1.608002718 -s 4 -d -1 -p message -e 32 -c 2 -a 0 -i 5 -k RTR
+ -t 1.637007294 -s 3 -d -1 -p message -e 32 -c 2 -a 0 -i 6 -k RTR 
- -t 1.637007294 -s 3 -d -1 -p message -e 32 -c 2 -a 0 -i 6 -k RTR
h -t 1.637007294 -s 3 -d -1 -p message -e 32 -c 2 -a 0 -i 6 -k RTR
+ -t 1.637282294 -s 3 -d -1 -p message -e 90 -c 2 -a 0 -i 6 -k MAC 
- -t 1.637282294 -s 3 -d -1 -p message -e 90 -c 2 -a 0 -i 6 -k MAC
h -t 1.637282294 -s 3 -d -1 -p message -e 90 -c 2 -a 0 -i 6 -k MAC
r -t 1.638002960 -s 2 -d -1 -p message -e 32 -c 2 -a 0 -i 6 -k MAC
r -t 1.638002960 -s 6 -d -1 -p message -e 32 -c 2 -a 0 -i 6 -k MAC
r -t 1.638003039 -s 4 -d -1 -p message -e 32 -c 2 -a 0 -i 6 -k MAC
r -t 1.638027960 -s 2 -d -1 -p message -e 32 -c 2 -a 0 -i 6 -k RTR
r -t 1.638027960 -s 6 -d -1 -p message -e 32 -c 2 -a 0 -i 6 -k RTR
r -t 1.638028039 -s 4 -d -1 -p message -e 32 -c 2 -a 0 -i 6 -k RTR
+ -t 3.000000000 -s 0 -d -1 -p tcp -e 1000 -c 2 -a 0 -i 7 -k AGT 
- -t 3.000000000 -s 0 -d -1 -p tcp -e 1000 -c 2 -a 0 -i 7 -k AGT
h -t 3.000000000 -s 0 -d -1 -p tcp -e 1000 -c 2 -a 0 -i 7 -k AGT
+ -t 3.000000000 -s 1 -d -1 -p tcp -e 1000 -c 2 -a 0 -i 8 -k AGT 
- -t 3.000000000 -s 1 -d -1 -p tcp -e 1000 -c 2 -a 0 -i 8 -k AGT
h -t 3.000000000 -s 1 -d -1 -p tcp -e 1000 -c 2 -a 0 -i 8 -k AGT
+ -t 6.000000000 -s 0 -d -1 -p tcp -e 1000 -c 2 -a 0 -i 9 -k AGT 
- -t 6.000000000 -s 0 -d -1 -p tcp -e 1000 -c 2 -a 0 -i 9 -k AGT
h -t 6.000000000 -s 0 -d -1 -p tcp -e 1000 -c 2 -a 0 -i 9 -k AGT
+ -t 6.000000000 -s 0 -d -1 -p tcp -e 1000 -c 2 -a 0 -i 10 -k AGT 
- -t 6.000000000 -s 0 -d -1 -p tcp -e 1000 -c 2 -a 0 -i 10 -k AGT
h -t 6.000000000 -s 0 -d -1 -p tcp -e 1000 -c 2 -a 0 -i 10 -k AGT
+ -t 6.000000000 -s 1 -d -1 -p tcp -e 1000 -c 2 -a 0 -i 11 -k AGT 
- -t 6.000000000 -s 1 -d -1 -p tcp -e 1000 -c 2 -a 0 -i 11 -k AGT
h -t 6.000000000 -s 1 -d -1 -p tcp -e 1000 -c 2 -a 0 -i 11 -k AGT
+ -t 6.000000000 -s 1 -d -1 -p tcp -e 1000 -c 2 -a 0 -i 12 -k AGT 
- -t 6.000000000 -s 1 -d -1 -p tcp -e 1000 -c 2 -a 0 -i 12 -k AGT
h -t 6.000000000 -s 1 -d -1 -p tcp -e 1000 -c 2 -a 0 -i 12 -k AGT
+ -t 12.000000000 -s 0 -d -1 -p tcp -e 1000 -c 2 -a 0 -i 13 -k AGT 
- -t 12.000000000 -s 0 -d -1 -p tcp -e 1000 -c 2 -a 0 -i 13 -k AGT
h -t 12.000000000 -s 0 -d -1 -p tcp -e 1000 -c 2 -a 0 -i 13 -k AGT
+ -t 12.000000000 -s 0 -d -1 -p tcp -e 1000 -c 2 -a 0 -i 14 -k AGT 
- -t 12.000000000 -s 0 -d -1 -p tcp -e 1000 -c 2 -a 0 -i 14 -k AGT
h -t 12.000000000 -s 0 -d -1 -p tcp -e 1000 -c 2 -a 0 -i 14 -k AGT
+ -t 12.000000000 -s 1 -d -1 -p tcp -e 1000 -c 2 -a 0 -i 15 -k AGT 
- -t 12.000000000 -s 1 -d -1 -p tcp -e 1000 -c 2 -a 0 -i 15 -k AGT
h -t 12.000000000 -s 1 -d -1 -p tcp -e 1000 -c 2 -a 0 -i 15 -k AGT
+ -t 12.000000000 -s 1 -d -1 -p tcp -e 1000 -c 2 -a 0 -i 16 -k AGT 
- -t 12.000000000 -s 1 -d -1 -p tcp -e 1000 -c 2 -a 0 -i 16 -k AGT
h -t 12.000000000 -s 1 -d -1 -p tcp -e 1000 -c 2 -a 0 -i 16 -k AGT
+ -t 12.343623214 -s 4 -d -1 -p message -e 32 -c 2 -a 0 -i 17 -k RTR 
- -t 12.343623214 -s 4 -d -1 -p message -e 32 -c 2 -a 0 -i 17 -k RTR
h -t 12.343623214 -s 4 -d -1 -p message -e 32 -c 2 -a 0 -i 17 -k RTR
+ -t 12.343898214 -s 4 -d -1 -p message -e 90 -c 2 -a 0 -i 17 -k MAC 
- -t 12.343898214 -s 4 -d -1 -p message -e 90 -c 2 -a 0 -i 17 -k MAC
h -t 12.343898214 -s 4 -d -1 -p message -e 90 -c 2 -a 0 -i 17 -k MAC
r -t 12.344618547 -s 2 -d -1 -p message -e 32 -c 2 -a 0 -i 17 -k MAC
r -t 12.344618547 -s 5 -d -1 -p message -e 32 -c 2 -a 0 -i 17 -k MAC
r -t 12.344618959 -s 1 -d -1 -p message -e 32 -c 2 -a 0 -i 17 -k MAC
r -t 12.344618959 -s 0 -d -1 -p message -e 32 -c 2 -a 0 -i 17 -k MAC
r -t 12.344618959 -s 3 -d -1 -p message -e 32 -c 2 -a 0 -i 17 -k MAC
r -t 12.344618959 -s 6 -d -1 -p message -e 32 -c 2 -a 0 -i 17 -k MAC
r -t 12.344643547 -s 2 -d -1 -p message -e 32 -c 2 -a 0 -i 17 -k RTR
r -t 12.344643547 -s 5 -d -1 -p message -e 32 -c 2 -a 0 -i 17 -k RTR
r -t 12.344643959 -s 1 -d -1 -p message -e 32 -c 2 -a 0 -i 17 -k RTR
r -t 12.344643959 -s 0 -d -1 -p message -e 32 -c 2 -a 0 -i 17 -k RTR
r -t 12.344643959 -s 3 -d -1 -p message -e 32 -c 2 -a 0 -i 17 -k RTR
r -t 12.344643959 -s 6 -d -1 -p message -e 32 -c 2 -a 0 -i 17 -k RTR
+ -t 12.620384948 -s 5 -d -1 -p message -e 32 -c 2 -a 0 -i 25 -k RTR 
- -t 12.620384948 -s 5 -d -1 -p message -e 32 -c 2 -a 0 -i 25 -k RTR
h -t 12.620384948 -s 5 -d -1 -p message -e 32 -c 2 -a 0 -i 25 -k RTR
+ -t 12.620799948 -s 5 -d -1 -p message -e 90 -c 2 -a 0 -i 25 -k MAC 
- -t 12.620799948 -s 5 -d -1 -p message -e 90 -c 2 -a 0 -i 25 -k MAC
h -t 12.620799948 -s 5 -d -1 -p message -e 90 -c 2 -a 0 -i 25 -k MAC
+ -t 12.620860891 -s 3 -d -1 -p message -e 32 -c 2 -a 0 -i 24 -k RTR 
- -t 12.620860891 -s 3 -d -1 -p message -e 32 -c 2 -a 0 -i 24 -k RTR
h -t 12.620860891 -s 3 -d -1 -p message -e 32 -c 2 -a 0 -i 24 -k RTR
r -t 12.621520282 -s 4 -d -1 -p message -e 32 -c 2 -a 0 -i 25 -k MAC
r -t 12.621520615 -s 2 -d -1 -p message -e 32 -c 2 -a 0 -i 25 -k MAC
r -t 12.621520615 -s 1 -d -1 -p message -e 32 -c 2 -a 0 -i 25 -k MAC
r -t 12.621520615 -s 6 -d -1 -p message -e 32 -c 2 -a 0 -i 25 -k MAC
r -t 12.621545282 -s 4 -d -1 -p message -e 32 -c 2 -a 0 -i 25 -k RTR
r -t 12.621545615 -s 2 -d -1 -p message -e 32 -c 2 -a 0 -i 25 -k RTR
r -t 12.621545615 -s 1 -d -1 -p message -e 32 -c 2 -a 0 -i 25 -k RTR
+ -t 12.621545615 -s 1 -d 5 -p tcp -e 1040 -c 2 -a 0 -i 8 -k RTR 
- -t 12.621545615 -s 1 -d 5 -p tcp -e 1040 -c 2 -a 0 -i 8 -k RTR
h -t 12.621545615 -s 1 -d 5 -p tcp -e 1040 -c 2 -a 0 -i 8 -k RTR
+ -t 12.621545615 -s 1 -d 5 -p tcp -e 1040 -c 2 -a 0 -i 11 -k RTR 
- -t 12.621545615 -s 1 -d 5 -p tcp -e 1040 -c 2 -a 0 -i 11 -k RTR
h -t 12.621545615 -s 1 -d 5 -p tcp -e 1040 -c 2 -a 0 -i 11 -k RTR
d -t 12.621545615 -s 1 -d 5 -p tcp -e 1040 -c 2 -a 0 -i 8 -k IFQ
+ -t 12.621545615 -s 1 -d 5 -p tcp -e 1040 -c 2 -a 0 -i 12 -k RTR 
- -t 12.621545615 -s 1 -d 5 -p tcp -e 1040 -c 2 -a 0 -i 12 -k RTR
h -t 12.621545615 -s 1 -d 5 -p tcp -e 1040 -c 2 -a 0 -i 12 -k RTR
d -t 12.621545615 -s 1 -d 5 -p tcp -e 1040 -c 2 -a 0 -i 11 -k IFQ
+ -t 12.621545615 -s 1 -d 5 -p tcp -e 1040 -c 2 -a 0 -i 15 -k RTR 
- -t 12.621545615 -s 1 -d 5 -p tcp -e 1040 -c 2 -a 0 -i 15 -k RTR
h -t 12.621545615 -s 1 -d 5 -p tcp -e 1040 -c 2 -a 0 -i 15 -k RTR
d -t 12.621545615 -s 1 -d 5 -p tcp -e 1040 -c 2 -a 0 -i 12 -k RTR
d -t 12.621545615 -s 1 -d 5 -p tcp -e 1040 -c 2 -a 0 -i 15 -k RTR
+ -t 12.621545615 -s 1 -d 5 -p tcp -e 1040 -c 2 -a 0 -i 16 -k RTR 
- -t 12.621545615 -s 1 -d 5 -p tcp -e 1040 -c 2 -a 0 -i 16 -k RTR
h -t 12.621545615 -s 1 -d 5 -p tcp -e 1040 -c 2 -a 0 -i 16 -k RTR
r -t 12.621545615 -s 6 -d -1 -p message -e 32 -c 2 -a 0 -i 25 -k RTR
+ -t 12.621780615 -s 1 -d -1 -p ARP -e 86 -c 2 -a 0 -i 0 -k MAC 
- -t 12.621780615 -s 1 -d -1 -p ARP -e 86 -c 2 -a 0 -i 0 -k MAC
h -t 12.621780615 -s 1 -d -1 -p ARP -e 86 -c 2 -a 0 -i 0 -k MAC
r -t 12.622469282 -s 0 -d -1 -p ARP -e 28 -c 2 -a 0 -i 0 -k MAC
r -t 12.622469282 -s 5 -d -1 -p ARP -e 28 -c 2 -a 0 -i 0 -k MAC
r -t 12.622469360 -s 4 -d -1 -p ARP -e 28 -c 2 -a 0 -i 0 -k MAC
+ -t 12.622599282 -s 5 -d -1 -p RTS -e 44 -c 2 -a 0 -i 0 -k MAC 
- -t 12.622599282 -s 5 -d -1 -p RTS -e 44 -c 2 -a 0 -i 0 -k MAC
h -t 12.622599282 -s 5 -d -1 -p RTS -e 44 -c 2 -a 0 -i 0 -k MAC
r -t 12.622951948 -s 1 -d -1 -p RTS -e 44 -c 2 -a 0 -i 0 -k MAC
+ -t 12.622961948 -s 1 -d -1 -p CTS -e 38 -c 2 -a 0 -i 0 -k MAC 
- -t 12.622961948 -s 1 -d -1 -p CTS -e 38 -c 2 -a 0 -i 0 -k MAC
h -t 12.622961948 -s 1 -d -1 -p CTS -e 38 -c 2 -a 0 -i 0 -k MAC
r -t 12.623266615 -s 5 -d -1 -p CTS -e 38 -c 2 -a 0 -i 0 -k MAC
+ -t 12.623276615 -s 5 -d -1 -p ARP -e 86 -c 2 -a 0 -i 0 -k MAC 
- -t 12.623276615 -s 5 -d -1 -p ARP -e 86 -c 2 -a 0 -i 0 -k MAC
h -t 12.623276615 -s 5 -d -1 -p ARP -e 86 -c 2 -a 0 -i 0 -k MAC
r -t 12.623965282 -s 1 -d -1 -p ARP -e 28 -c 2 -a 0 -i 0 -k MAC
+ -t 12.623975282 -s 1 -d -1 -p ACK -e 38 -c 2 -a 0 -i 0 -k MAC 
- -t 12.623975282 -s 1 -d -1 -p ACK -e 38 -c 2 -a 0 -i 0 -k MAC
h -t 12.623975282 -s 1 -d -1 -p ACK -e 38 -c 2 -a 0 -i 0 -k MAC
r -t 12.624279948 -s 5 -d -1 -p ACK -e 38 -c 2 -a 0 -i 0 -k MAC
+ -t 12.624529282 -s 1 -d -1 -p ARP -e 86 -c 2 -a 0 -i 0 -k MAC 
- -t 12.624529282 -s 1 -d -1 -p ARP -e 86 -c 2 -a 0 -i 0 -k MAC
h -t 12.624529282 -s 1 -d -1 -p ARP -e 86 -c 2 -a 0 -i 0 -k MAC
r -t 12.625217948 -s 0 -d -1 -p ARP -e 28 -c 2 -a 0 -i 0 -k MAC
r -t 12.625217948 -s 5 -d -1 -p ARP -e 28 -c 2 -a 0 -i 0 -k MAC
r -t 12.625218027 -s 4 -d -1 -p ARP -e 28 -c 2 -a 0 -i 0 -k MAC
+ -t 12.625267282 -s 1 -d -1 -p ARP -e 86 -c 2 -a 0 -i 0 -k MAC 
- -t 12.625267282 -s 1 -d -1 -p ARP -e 86 -c 2 -a 0 -i 0 -k MAC
h -t 12.625267282 -s 1 -d -1 -p ARP -e 86 -c 2 -a 0 -i 0 -k MAC
r -t 12.625955948 -s 0 -d -1 -p ARP -e 28 -c 2 -a 0 -i 0 -k MAC
r -t 12.625955948 -s 5 -d -1 -p ARP -e 28 -c 2 -a 0 -i 0 -k MAC
r -t 12.625956027 -s 4 -d -1 -p ARP -e 28 -c 2 -a 0 -i 0 -k MAC
+ -t 12.626225282 -s 1 -d -1 -p ARP -e 86 -c 2 -a 0 -i 0 -k MAC 
- -t 12.626225282 -s 1 -d -1 -p ARP -e 86 -c 2 -a 0 -i 0 -k MAC
h -t 12.626225282 -s 1 -d -1 -p ARP -e 86 -c 2 -a 0 -i 0 -k MAC
r -t 12.626913948 -s 0 -d -1 -p ARP -e 28 -c 2 -a 0 -i 0 -k MAC
r -t 12.626913948 -s 5 -d -1 -p ARP -e 28 -c 2 -a 0 -i 0 -k MAC
r -t 12.626914027 -s 4 -d -1 -p ARP -e 28 -c 2 -a 0 -i 0 -k MAC
+ -t 12.627043948 -s 5 -d -1 -p RTS -e 44 -c 2 -a 0 -i 0 -k MAC 
- -t 12.627043948 -s 5 -d -1 -p RTS -e 44 -c 2 -a 0 -i 0 -k MAC
h -t 12.627043948 -s 5 -d -1 -p RTS -e 44 -c 2 -a 0 -i 0 -k MAC
r -t 12.627396615 -s 1 -d -1 -p RTS -e 44 -c 2 -a 0 -i 0 -k MAC
+ -t 12.627406615 -s 1 -d -1 -p CTS -e 38 -c 2 -a 0 -i 0 -k MAC 
- -t 12.627406615 -s 1 -d -1 -p CTS -e 38 -c 2 -a 0 -i 0 -k MAC
h -t 12.627406615 -s 1 -d -1 -p CTS -e 38 -c 2 -a 0 -i 0 -k MAC
r -t 12.627711282 -s 5 -d -1 -p CTS -e 38 -c 2 -a 0 -i 0 -k MAC
+ -t 12.627721282 -s 5 -d -1 -p ARP -e 86 -c 2 -a 0 -i 0 -k MAC 
- -t 12.627721282 -s 5 -d -1 -p ARP -e 86 -c 2 -a 0 -i 0 -k MAC
h -t 12.627721282 -s 5 -d -1 -p ARP -e 86 -c 2 -a 0 -i 0 -k MAC
r -t 12.628409948 -s 1 -d -1 -p ARP -e 28 -c 2 -a 0 -i 0 -k MAC
+ -t 12.628419948 -s 1 -d -1 -p ACK -e 38 -c 2 -a 0 -i 0 -k MAC 
- -t 12.628419948 -s 1 -d -1 -p ACK -e 38 -c 2 -a 0 -i 0 -k MAC
h -t 12.628419948 -s 1 -d -1 -p ACK -e 38 -c 2 -a 0 -i 0 -k MAC
r -t 12.628724615 -s 5 -d -1 -p ACK -e 38 -c 2 -a 0 -i 0 -k MAC
+ -t 12.628994615 -s 5 -d -1 -p RTS -e 44 -c 2 -a 0 -i 0 -k MAC 
- -t 12.628994615 -s 5 -d -1 -p RTS -e 44 -c 2 -a 0 -i 0 -k MAC
h -t 12.628994615 -s 5 -d -1 -p RTS -e 44 -c 2 -a 0 -i 0 -k MAC
r -t 12.629347282 -s 1 -d -1 -p RTS -e 44 -c 2 -a 0 -i 0 -k MAC
+ -t 12.629357282 -s 1 -d -1 -p CTS -e 38 -c 2 -a 0 -i 0 -k MAC 
- -t 12.629357282 -s 1 -d -1 -p CTS -e 38 -c 2 -a 0 -i 0 -k MAC
h -t 12.629357282 -s 1 -d -1 -p CTS -e 38 -c 2 -a 0 -i 0 -k MAC
r -t 12.629661948 -s 5 -d -1 -p CTS -e 38 -c 2 -a 0 -i 0 -k MAC
+ -t 12.629671948 -s 5 -d -1 -p ARP -e 86 -c 2 -a 0 -i 0 -k MAC 
- -t 12.629671948 -s 5 -d -1 -p ARP -e 86 -c 2 -a 0 -i 0 -k MAC
h -t 12.629671948 -s 5 -d -1 -p ARP -e 86 -c 2 -a 0 -i 0 -k MAC
r -t 12.630360615 -s 1 -d -1 -p ARP -e 28 -c 2 -a 0 -i 0 -k MAC
+ -t 12.630370615 -s 1 -d -1 -p ACK -e 38 -c 2 -a 0 -i 0 -k MAC 
- -t 12.630370615 -s 1 -d -1 -p ACK -e 38 -c 2 -a 0 -i 0 -k MAC
h -t 12.630370615 -s 1 -d -1 -p ACK -e 38 -c 2 -a 0 -i 0 -k MAC
r -t 12.630675282 -s 5 -d -1 -p ACK -e 38 -c 2 -a 0 -i 0 -k MAC
+ -t 12.630744615 -s 1 -d -1 -p RTS -e 44 -c 2 -a 0 -i 0 -k MAC 
- -t 12.630744615 -s 1 -d -1 -p RTS -e 44 -c 2 -a 0 -i 0 -k MAC
h -t 12.630744615 -s 1 -d -1 -p RTS -e 44 -c 2 -a 0 -i 0 -k MAC
r -t 12.631097282 -s 5 -d -1 -p RTS -e 44 -c 2 -a 0 -i 0 -k MAC
+ -t 12.631107282 -s 5 -d -1 -p CTS -e 38 -c 2 -a 0 -i 0 -k MAC 
- -t 12.631107282 -s 5 -d -1 -p CTS -e 38 -c 2 -a 0 -i 0 -k MAC
h -t 12.631107282 -s 5 -d -1 -p CTS -e 38 -c 2 -a 0 -i 0 -k MAC
r -t 12.631411948 -s 1 -d -1 -p CTS -e 38 -c 2 -a 0 -i 0 -k MAC
+ -t 12.631421948 -s 1 -d 5 -p tcp -e 1098 -c 2 -a 0 -i 16 -k MAC 
- -t 12.631421948 -s 1 -d 5 -p tcp -e 1098 -c 2 -a 0 -i 16 -k MAC
h -t 12.631421948 -s 1 -d 5 -p tcp -e 1098 -c 2 -a 0 -i 16 -k MAC
+ -t 12.633433995 -s 0 -d -1 -p message -e 32 -c 2 -a 0 -i 26 -k RTR 
- -t 12.633433995 -s 0 -d -1 -p message -e 32 -c 2 -a 0 -i 26 -k RTR
h -t 12.633433995 -s 0 -d -1 -p message -e 32 -c 2 -a 0 -i 26 -k RTR
r -t 12.640206615 -s 5 -d 5 -p tcp -e 1040 -c 2 -a 0 -i 16 -k MAC
+ -t 12.640216615 -s 5 -d -1 -p ACK -e 38 -c 2 -a 0 -i 0 -k MAC 
- -t 12.640216615 -s 5 -d -1 -p ACK -e 38 -c 2 -a 0 -i 0 -k MAC
h -t 12.640216615 -s 5 -d -1 -p ACK -e 38 -c 2 -a 0 -i 0 -k MAC
+ -t 12.640231615 -s 5 -d 6 -p tcp -e 1040 -c 2 -a 0 -i 16 -k RTR 
- -t 12.640231615 -s 5 -d 6 -p tcp -e 1040 -c 2 -a 0 -i 16 -k RTR
h -t 12.640231615 -s 5 -d 6 -p tcp -e 1040 -c 2 -a 0 -i 16 -k RTR
r -t 12.640521282 -s 1 -d -1 -p ACK -e 38 -c 2 -a 0 -i 0 -k MAC
+ -t 12.640650615 -s 5 -d -1 -p RTS -e 44 -c 2 -a 0 -i 0 -k MAC 
- -t 12.640650615 -s 5 -d -1 -p RTS -e 44 -c 2 -a 0 -i 0 -k MAC
h -t 12.640650615 -s 5 -d -1 -p RTS -e 44 -c 2 -a 0 -i 0 -k MAC
r -t 12.641003282 -s 1 -d -1 -p RTS -e 44 -c 2 -a 0 -i 0 -k MAC
+ -t 12.641013282 -s 1 -d -1 -p CTS -e 38 -c 2 -a 0 -i 0 -k MAC 
- -t 12.641013282 -s 1 -d -1 -p CTS -e 38 -c 2 -a 0 -i 0 -k MAC
h -t 12.641013282 -s 1 -d -1 -p CTS -e 38 -c 2 -a 0 -i 0 -k MAC
r -t 12.641317948 -s 5 -d -1 -p CTS -e 38 -c 2 -a 0 -i 0 -k MAC
+ -t 12.641327948 -s 5 -d -1 -p ARP -e 86 -c 2 -a 0 -i 0 -k MAC 
- -t 12.641327948 -s 5 -d -1 -p ARP -e 86 -c 2 -a 0 -i 0 -k MAC
h -t 12.641327948 -s 5 -d -1 -p ARP -e 86 -c 2 -a 0 -i 0 -k MAC
r -t 12.642016615 -s 1 -d -1 -p ARP -e 28 -c 2 -a 0 -i 0 -k MAC
+ -t 12.642026615 -s 1 -d -1 -p ACK -e 38 -c 2 -a 0 -i 0 -k MAC 
- -t 12.642026615 -s 1 -d -1 -p ACK -e 38 -c 2 -a 0 -i 0 -k MAC
h -t 12.642026615 -s 1 -d -1 -p ACK -e 38 -c 2 -a 0 -i 0 -k MAC
r -t 12.642331282 -s 5 -d -1 -p ACK -e 38 -c 2 -a 0 -i 0 -k MAC
+ -t 12.642621282 -s 5 -d -1 -p ARP -e 86 -c 2 -a 0 -i 0 -k MAC 
- -t 12.642621282 -s 5 -d -1 -p ARP -e 86 -c 2 -a 0 -i 0 -k MAC
h -t 12.642621282 -s 5 -d -1 -p ARP -e 86 -c 2 -a 0 -i 0 -k MAC
r -t 12.643309615 -s 4 -d -1 -p ARP -e 28 -c 2 -a 0 -i 0 -k MAC
r -t 12.643309948 -s 2 -d -1 -p ARP -e 28 -c 2 -a 0 -i 0 -k MAC
r -t 12.643309948 -s 1 -d -1 -p ARP -e 28 -c 2 -a 0 -i 0 -k MAC
r -t 12.643309948 -s 6 -d -1 -p ARP -e 28 -c 2 -a 0 -i 0 -k MAC
+ -t 12.643644948 -s 6 -d -1 -p RTS -e 44 -c 2 -a 0 -i 0 -k MAC 
- -t 12.643644948 -s 6 -d -1 -p RTS -e 44 -c 2 -a 0 -i 0 -k MAC
h -t 12.643644948 -s 6 -d -1 -p RTS -e 44 -c 2 -a 0 -i 0 -k MAC
r -t 12.643997615 -s 5 -d -1 -p RTS -e 44 -c 2 -a 0 -i 0 -k MAC
+ -t 12.644007615 -s 5 -d -1 -p CTS -e 38 -c 2 -a 0 -i 0 -k MAC 
- -t 12.644007615 -s 5 -d -1 -p CTS -e 38 -c 2 -a 0 -i 0 -k MAC
h -t 12.644007615 -s 5 -d -1 -p CTS -e 38 -c 2 -a 0 -i 0 -k MAC
r -t 12.644312282 -s 6 -d -1 -p CTS -e 38 -c 2 -a 0 -i 0 -k MAC
+ -t 12.644322282 -s 6 -d -1 -p ARP -e 86 -c 2 -a 0 -i 0 -k MAC 
- -t 12.644322282 -s 6 -d -1 -p ARP -e 86 -c 2 -a 0 -i 0 -k MAC
h -t 12.644322282 -s 6 -d -1 -p ARP -e 86 -c 2 -a 0 -i 0 -k MAC
r -t 12.645010948 -s 5 -d -1 -p ARP -e 28 -c 2 -a 0 -i 0 -k MAC
+ -t 12.645020948 -s 5 -d -1 -p ACK -e 38 -c 2 -a 0 -i 0 -k MAC 
- -t 12.645020948 -s 5 -d -1 -p ACK -e 38 -c 2 -a 0 -i 0 -k MAC
h -t 12.645020948 -s 5 -d -1 -p ACK -e 38 -c 2 -a 0 -i 0 -k MAC
r -t 12.645325615 -s 6 -d -1 -p ACK -e 38 -c 2 -a 0 -i 0 -k MAC
+ -t 12.645394948 -s 5 -d -1 -p RTS -e 44 -c 2 -a 0 -i 0 -k MAC 
- -t 12.645394948 -s 5 -d -1 -p RTS -e 44 -c 2 -a 0 -i 0 -k MAC
h -t 12.645394948 -s 5 -d -1 -p RTS -e 44 -c 2 -a 0 -i 0 -k MAC
r -t 12.645747615 -s 6 -d -1 -p RTS -e 44 -c 2 -a 0 -i 0 -k MAC
+ -t 12.645757615 -s 6 -d -1 -p CTS -e 38 -c 2 -a 0 -i 0 -k MAC 
- -t 12.645757615 -s 6 -d -1 -p CTS -e 38 -c 2 -a 0 -i 0 -k MAC
h -t 12.645757615 -s 6 -d -1 -p CTS -e 38 -c 2 -a 0 -i 0 -k MAC
r -t 12.646062282 -s 5 -d -1 -p CTS -e 38 -c 2 -a 0 -i 0 -k MAC
+ -t 12.646072282 -s 5 -d 6 -p tcp -e 1098 -c 2 -a 0 -i 16 -k MAC 
- -t 12.646072282 -s 5 -d 6 -p tcp -e 1098 -c 2 -a 0 -i 16 -k MAC
h -t 12.646072282 -s 5 -d 6 -p tcp -e 1098 -c 2 -a 0 -i 16 -k MAC
r -t 12.654856948 -s 6 -d 6 -p tcp -e 1040 -c 2 -a 0 -i 16 -k MAC
+ -t 12.654866948 -s 6 -d -1 -p ACK -e 38 -c 2 -a 0 -i 0 -k MAC 
- -t 12.654866948 -s 6 -d -1 -p ACK -e 38 -c 2 -a 0 -i 0 -k MAC
h -t 12.654866948 -s 6 -d -1 -p ACK -e 38 -c 2 -a 0 -i 0 -k MAC
r -t 12.654881948 -s 6 -d 6 -p tcp -e 1040 -c 2 -a 0 -i 16 -k AGT
+ -t 12.654881948 -s 6 -d -1 -p ack -e 40 -c 2 -a 0 -i 27 -k AGT 
- -t 12.654881948 -s 6 -d -1 -p ack -e 40 -c 2 -a 0 -i 27 -k AGT
h -t 12.654881948 -s 6 -d -1 -p ack -e 40 -c 2 -a 0 -i 27 -k AGT
r -t 12.655171615 -s 5 -d -1 -p ACK -e 38 -c 2 -a 0 -i 0 -k MAC
+ -t 12.655706439 -s 0 -d -1 -p message -e 90 -c 2 -a 0 -i 26 -k MAC 
- -t 12.655706439 -s 0 -d -1 -p message -e 90 -c 2 -a 0 -i 26 -k MAC
h -t 12.655706439 -s 0 -d -1 -p message -e 90 -c 2 -a 0 -i 26 -k MAC
r -t 12.656427106 -s 1 -d -1 -p message -e 32 -c 2 -a 0 -i 26 -k MAC
r -t 12.656427106 -s 2 -d -1 -p message -e 32 -c 2 -a 0 -i 26 -k MAC
r -t 12.656427184 -s 4 -d -1 -p message -e 32 -c 2 -a 0 -i 26 -k MAC
r -t 12.656452106 -s 1 -d -1 -p message -e 32 -c 2 -a 0 -i 26 -k RTR
r -t 12.656452106 -s 2 -d -1 -p message -e 32 -c 2 -a 0 -i 26 -k RTR
r -t 12.656452184 -s 4 -d -1 -p message -e 32 -c 2 -a 0 -i 26 -k RTR
+ -t 12.656921772 -s 3 -d -1 -p message -e 90 -c 2 -a 0 -i 24 -k MAC 
- -t 12.656921772 -s 3 -d -1 -p message -e 90 -c 2 -a 0 -i 24 -k MAC
h -t 12.656921772 -s 3 -d -1 -p message -e 90 -c 2 -a 0 -i 24 -k MAC
r -t 12.657642439 -s 2 -d -1 -p message -e 32 -c 2 -a 0 -i 24 -k MAC
r -t 12.657642439 -s 6 -d -1 -p message -e 32 -c 2 -a 0 -i 24 -k MAC
r -t 12.657642518 -s 4 -d -1 -p message -e 32 -c 2 -a 0 -i 24 -k MAC
r -t 12.657667439 -s 2 -d -1 -p message -e 32 -c 2 -a 0 -i 24 -k RTR
r -t 12.657667439 -s 6 -d -1 -p message -e 32 -c 2 -a 0 -i 24 -k RTR
r -t 12.657667518 -s 4 -d -1 -p message -e 32 -c 2 -a 0 -i 24 -k RTR
+ -t 12.888607857 -s 1 -d -1 -p message -e 44 -c 2 -a 0 -i 28 -k RTR 
- -t 12.888607857 -s 1 -d -1 -p message -e 44 -c 2 -a 0 -i 28 -k RTR
h -t 12.888607857 -s 1 -d -1 -p message -e 44 -c 2 -a 0 -i 28 -k RTR
+ -t 12.889142857 -s 1 -d -1 -p message -e 102 -c 2 -a 0 -i 28 -k MAC 
- -t 12.889142857 -s 1 -d -1 -p message -e 102 -c 2 -a 0 -i 28 -k MAC
h -t 12.889142857 -s 1 -d -1 -p message -e 102 -c 2 -a 0 -i 28 -k MAC
r -t 12.889959523 -s 0 -d -1 -p message -e 44 -c 2 -a 0 -i 28 -k MAC
r -t 12.889959523 -s 5 -d -1 -p message -e 44 -c 2 -a 0 -i 28 -k MAC
r -t 12.889959602 -s 4 -d -1 -p message -e 44 -c 2 -a 0 -i 28 -k MAC
r -t 12.889984523 -s 0 -d -1 -p message -e 44 -c 2 -a 0 -i 28 -k RTR
r -t 12.889984523 -s 5 -d -1 -p message -e 44 -c 2 -a 0 -i 28 -k RTR
r -t 12.889984602 -s 4 -d -1 -p message -e 44 -c 2 -a 0 -i 28 -k RTR
+ -t 12.892611505 -s 2 -d -1 -p message -e 32 -c 2 -a 0 -i 29 -k RTR 
- -t 12.892611505 -s 2 -d -1 -p message -e 32 -c 2 -a 0 -i 29 -k RTR
h -t 12.892611505 -s 2 -d -1 -p message -e 32 -c 2 -a 0 -i 29 -k RTR
+ -t 12.892886505 -s 2 -d -1 -p message -e 90 -c 2 -a 0 -i 29 -k MAC 
- -t 12.892886505 -s 2 -d -1 -p message -e 90 -c 2 -a 0 -i 29 -k MAC
h -t 12.892886505 -s 2 -d -1 -p message -e 90 -c 2 -a 0 -i 29 -k MAC
r -t 12.893606838 -s 4 -d -1 -p message -e 32 -c 2 -a 0 -i 29 -k MAC
r -t 12.893607171 -s 0 -d -1 -p message -e 32 -c 2 -a 0 -i 29 -k MAC
r -t 12.893607171 -s 5 -d -1 -p message -e 32 -c 2 -a 0 -i 29 -k MAC
r -t 12.893607171 -s 3 -d -1 -p message -e 32 -c 2 -a 0 -i 29 -k MAC
r -t 12.893631838 -s 4 -d -1 -p message -e 32 -c 2 -a 0 -i 29 -k RTR
r -t 12.893632171 -s 0 -d -1 -p message -e 32 -c 2 -a 0 -i 29 -k RTR
r -t 12.893632171 -s 5 -d -1 -p message -e 32 -c 2 -a 0 -i 29 -k RTR
r -t 12.893632171 -s 3 -d -1 -p message -e 32 -c 2 -a 0 -i 29 -k RTR
+ -t 13.291923827 -s 6 -d -1 -p message -e 32 -c 2 -a 0 -i 30 -k RTR 
- -t 13.291923827 -s 6 -d -1 -p message -e 32 -c 2 -a 0 -i 30 -k RTR
h -t 13.291923827 -s 6 -d -1 -p message -e 32 -c 2 -a 0 -i 30 -k RTR
+ -t 13.292258827 -s 6 -d -1 -p message -e 90 -c 2 -a 0 -i 30 -k MAC 
- -t 13.292258827 -s 6 -d -1 -p message -e 90 -c 2 -a 0 -i 30 -k MAC
h -t 13.292258827 -s 6 -d -1 -p message -e 90 -c 2 -a 0 -i 30 -k MAC
r -t 13.292979493 -s 3 -d -1 -p message -e 32 -c 2 -a 0 -i 30 -k MAC
r -t 13.292979493 -s 5 -d -1 -p message -e 32 -c 2 -a 0 -i 30 -k MAC
r -t 13.292979572 -s 4 -d -1 -p message -e 32 -c 2 -a 0 -i 30 -k MAC
r -t 13.293004493 -s 3 -d -1 -p message -e 32 -c 2 -a 0 -i 30 -k RTR
r -t 13.293004493 -s 5 -d -1 -p message -e 32 -c 2 -a 0 -i 30 -k RTR
r -t 13.293004572 -s 4 -d -1 -p message -e 32 -c 2 -a 0 -i 30 -k RTR
+ -t 13.300590374 -s 3 -d -1 -p message -e 56 -c 2 -a 0 -i 31 -k RTR 
- -t 13.300590374 -s 3 -d -1 -p message -e 56 -c 2 -a 0 -i 31 -k RTR
h -t 13.300590374 -s 3 -d -1 -p message -e 56 -c 2 -a 0 -i 31 -k RTR
+ -t 13.301265374 -s 3 -d -1 -p message -e 114 -c 2 -a 0 -i 31 -k MAC 
- -t 13.301265374 -s 3 -d -1 -p message -e 114 -c 2 -a 0 -i 31 -k MAC
h -t 13.301265374 -s 3 -d -1 -p message -e 114 -c 2 -a 0 -i 31 -k MAC
r -t 13.302178041 -s 2 -d -1 -p message -e 56 -c 2 -a 0 -i 31 -k MAC
r -t 13.302178041 -s 6 -d -1 -p message -e 56 -c 2 -a 0 -i 31 -k MAC
r -t 13.302178119 -s 4 -d -1 -p message -e 56 -c 2 -a 0 -i 31 -k MAC
r -t 13.302203041 -s 2 -d -1 -p message -e 56 -c 2 -a 0 -i 31 -k RTR
r -t 13.302203041 -s 6 -d -1 -p message -e 56 -c 2 -a 0 -i 31 -k RTR
r -t 13.302203119 -s 4 -d -1 -p message -e 56 -c 2 -a 0 -i 31 -k RTR
+ -t 13.342768897 -s 4 -d -1 -p message -e 80 -c 2 -a 0 -i 32 -k RTR 
- -t 13.342768897 -s 4 -d -1 -p message -e 80 -c 2 -a 0 -i 32 -k RTR
h -t 13.342768897 -s 4 -d -1 -p message -e 80 -c 2 -a 0 -i 32 -k RTR
+ -t 13.342963897 -s 4 -d -1 -p message -e 138 -c 2 -a 0 -i 32 -k MAC 
- -t 13.342963897 -s 4 -d -1 -p message -e 138 -c 2 -a 0 -i 32 -k MAC
h -t 13.342963897 -s 4 -d -1 -p message -e 138 -c 2 -a 0 -i 32 -k MAC
r -t 13.344068230 -s 2 -d -1 -p message -e 80 -c 2 -a 0 -i 32 -k MAC
r -t 13.344068230 -s 5 -d -1 -p message -e 80 -c 2 -a 0 -i 32 -k MAC
r -t 13.344068642 -s 1 -d -1 -p message -e 80 -c 2 -a 0 -i 32 -k MAC
r -t 13.344068642 -s 0 -d -1 -p message -e 80 -c 2 -a 0 -i 32 -k MAC
r -t 13.344068642 -s 3 -d -1 -p message -e 80 -c 2 -a 0 -i 32 -k MAC
r -t 13.344068642 -s 6 -d -1 -p message -e 80 -c 2 -a 0 -i 32 -k MAC
r -t 13.344093230 -s 2 -d -1 -p message -e 80 -c 2 -a 0 -i 32 -k RTR
r -t 13.344093230 -s 5 -d -1 -p message -e 80 -c 2 -a 0 -i 32 -k RTR
r -t 13.344093642 -s 1 -d -1 -p message -e 80 -c 2 -a 0 -i 32 -k RTR
r -t 13.344093642 -s 0 -d -1 -p message -e 80 -c 2 -a 0 -i 32 -k RTR
r -t 13.344093642 -s 3 -d -1 -p message -e 80 -c 2 -a 0 -i 32 -k RTR
r -t 13.344093642 -s 6 -d -1 -p message -e 80 -c 2 -a 0 -i 32 -k RTR
+ -t 13.628432688 -s 5 -d -1 -p message -e 56 -c 2 -a 0 -i 33 -k RTR 
- -t 13.628432688 -s 5 -d -1 -p message -e 56 -c 2 -a 0 -i 33 -k RTR
h -t 13.628432688 -s 5 -d -1 -p message -e 56 -c 2 -a 0 -i 33 -k RTR
+ -t 13.628807688 -s 5 -d -1 -p message -e 114 -c 2 -a 0 -i 33 -k MAC 
- -t 13.628807688 -s 5 -d -1 -p message -e 114 -c 2 -a 0 -i 33 -k MAC
h -t 13.628807688 -s 5 -d -1 -p message -e 114 -c 2 -a 0 -i 33 -k MAC
r -t 13.629720022 -s 4 -d -1 -p message -e 56 -c 2 -a 0 -i 33 -k MAC
r -t 13.629720355 -s 2 -d -1 -p message -e 56 -c 2 -a 0 -i 33 -k MAC
r -t 13.629720355 -s 1 -d -1 -p message -e 56 -c 2 -a 0 -i 33 -k MAC
r -t 13.629720355 -s 6 -d -1 -p message -e 56 -c 2 -a 0 -i 33 -k MAC
r -t 13.629745022 -s 4 -d -1 -p message -e 56 -c 2 -a 0 -i 33 -k RTR
r -t 13.629745355 -s 2 -d -1 -p message -e 56 -c 2 -a 0 -i 33 -k RTR
r -t 13.629745355 -s 1 -d -1 -p message -e 56 -c 2 -a 0 -i 33 -k RTR
r -t 13.629745355 -s 6 -d -1 -p message -e 56 -c 2 -a 0 -i 33 -k RTR
+ -t 13.629745355 -s 6 -d 5 -p ack -e 80 -c 2 -a 0 -i 27 -k RTR 