M 0.00000 0 (100.00, 300.00, 0.00), (100.00, 300.00), 0.00
M 0.00000 1 (100.00, 100.00, 0.00), (100.00, 100.00), 0.00
M 0.00000 2 (300.00, 300.00, 0.00), (300.00, 300.00), 0.00
M 0.00000 3 (500.00, 300.00, 0.00), (500.00, 300.00), 0.00
M 0.00000 4 (300.00, 200.00, 0.00), (300.00, 200.00), 0.00
M 0.00000 5 (300.00, 100.00, 0.00), (300.00, 100.00), 0.00
M 0.00000 6 (500.00, 100.00, 0.00), (500.00, 100.00), 0.00
s 0.477566739 _4_ RTR  --- 0 message 32 [0 0 0 0] ------- [4:255 -1:255 32 0] 
s 0.478181739 _4_ MAC  --- 0 message 90 [0 ffffffff 4 800] ------- [4:255 -1:255 32 0] 
r 0.478902072 _2_ MAC  --- 0 message 32 [0 ffffffff 4 800] ------- [4:255 -1:255 32 0] 
r 0.478902072 _5_ MAC  --- 0 message 32 [0 ffffffff 4 800] ------- [4:255 -1:255 32 0] 
r 0.478902484 _1_ MAC  --- 0 message 32 [0 ffffffff 4 800] ------- [4:255 -1:255 32 0] 
r 0.478902484 _0_ MAC  --- 0 message 32 [0 ffffffff 4 800] ------- [4:255 -1:255 32 0] 
r 0.478902484 _3_ MAC  --- 0 message 32 [0 ffffffff 4 800] ------- [4:255 -1:255 32 0] 
r 0.478902484 _6_ MAC  --- 0 message 32 [0 ffffffff 4 800] ------- [4:255 -1:255 32 0] 
r 0.478927072 _2_ RTR  --- 0 message 32 [0 ffffffff 4 800] ------- [4:255 -1:255 32 0] 
r 0.478927072 _5_ RTR  --- 0 message 32 [0 ffffffff 4 800] ------- [4:255 -1:255 32 0] 
r 0.478927484 _1_ RTR  --- 0 message 32 [0 ffffffff 4 800] ------- [4:255 -1:255 32 0] 
r 0.478927484 _0_ RTR  --- 0 message 32 [0 ffffffff 4 800] ------- [4:255 -1:255 32 0] 
r 0.478927484 _3_ RTR  --- 0 message 32 [0 ffffffff 4 800] ------- [4:255 -1:255 32 0] 
r 0.478927484 _6_ RTR  --- 0 message 32 [0 ffffffff 4 800] ------- [4:255 -1:255 32 0] 
s 0.619296198 _6_ RTR  --- 1 message 32 [0 0 0 0] ------- [6:255 -1:255 32 0] 
s 0.619531198 _6_ MAC  --- 1 message 90 [0 ffffffff 6 800] ------- [6:255 -1:255 32 0] 
r 0.620251865 _3_ MAC  --- 1 message 32 [0 ffffffff 6 800] ------- [6:255 -1:255 32 0] 
r 0.620251865 _5_ MAC  --- 1 message 32 [0 ffffffff 6 800] ------- [6:255 -1:255 32 0] 
r 0.620251944 _4_ MAC  --- 1 message 32 [0 ffffffff 6 800] ------- [6:255 -1:255 32 0] 
r 0.620276865 _3_ RTR  --- 1 message 32 [0 ffffffff 6 800] ------- [6:255 -1:255 32 0] 
r 0.620276865 _5_ RTR  --- 1 message 32 [0 ffffffff 6 800] ------- [6:255 -1:255 32 0] 
r 0.620276944 _4_ RTR  --- 1 message 32 [0 ffffffff 6 800] ------- [6:255 -1:255 32 0] 
s 0.626864932 _2_ RTR  --- 2 message 32 [0 0 0 0] ------- [2:255 -1:255 32 0] 
s 0.627139932 _2_ MAC  --- 2 message 90 [0 ffffffff 2 800] ------- [2:255 -1:255 32 0] 
r 0.627860265 _4_ MAC  --- 2 message 32 [0 ffffffff 2 800] ------- [2:255 -1:255 32 0] 
r 0.627860598 _0_ MAC  --- 2 message 32 [0 ffffffff 2 800] ------- [2:255 -1:255 32 0] 
r 0.627860598 _5_ MAC  --- 2 message 32 [0 ffffffff 2 800] ------- [2:255 -1:255 32 0] 
r 0.627860598 _3_ MAC  --- 2 message 32 [0 ffffffff 2 800] ------- [2:255 -1:255 32 0] 
r 0.627885265 _4_ RTR  --- 2 message 32 [0 ffffffff 2 800] ------- [2:255 -1:255 32 0] 
r 0.627885598 _0_ RTR  --- 2 message 32 [0 ffffffff 2 800] ------- [2:255 -1:255 32 0] 
r 0.627885598 _5_ RTR  --- 2 message 32 [0 ffffffff 2 800] ------- [2:255 -1:255 32 0] 
r 0.627885598 _3_ RTR  --- 2 message 32 [0 ffffffff 2 800] ------- [2:255 -1:255 32 0] 
s 0.886433621 _0_ RTR  --- 3 message 32 [0 0 0 0] ------- [0:255 -1:255 32 0] 
s 0.886948621 _0_ MAC  --- 3 message 90 [0 ffffffff 0 800] ------- [0:255 -1:255 32 0] 
r 0.887669288 _1_ MAC  --- 3 message 32 [0 ffffffff 0 800] ------- [0:255 -1:255 32 0] 
r 0.887669288 _2_ MAC  --- 3 message 32 [0 ffffffff 0 800] ------- [0:255 -1:255 32 0] 
r 0.887669366 _4_ MAC  --- 3 message 32 [0 ffffffff 0 800] ------- [0:255 -1:255 32 0] 
r 0.887694288 _1_ RTR  --- 3 message 32 [0 ffffffff 0 800] ------- [0:255 -1:255 32 0] 
r 0.887694288 _2_ RTR  --- 3 message 32 [0 ffffffff 0 800] ------- [0:255 -1:255 32 0] 
r 0.887694366 _4_ RTR  --- 3 message 32 [0 ffffffff 0 800] ------- [0:255 -1:255 32 0] 
s 1.286350959 _5_ RTR  --- 4 message 32 [0 0 0 0] ------- [5:255 -1:255 32 0] 
s 1.286965959 _5_ MAC  --- 4 message 90 [0 ffffffff 5 800] ------- [5:255 -1:255 32 0] 
r 1.287686293 _4_ MAC  --- 4 message 32 [0 ffffffff 5 800] ------- [5:255 -1:255 32 0] 
r 1.287686626 _2_ MAC  --- 4 message 32 [0 ffffffff 5 800] ------- [5:255 -1:255 32 0] 
r 1.287686626 _1_ MAC  --- 4 message 32 [0 ffffffff 5 800] ------- [5:255 -1:255 32 0] 
r 1.287686626 _6_ MAC  --- 4 message 32 [0 ffffffff 5 800] ------- [5:255 -1:255 32 0] 
r 1.287711293 _4_ RTR  --- 4 message 32 [0 ffffffff 5 800] ------- [5:255 -1:255 32 0] 
r 1.287711626 _2_ RTR  --- 4 message 32 [0 ffffffff 5 800] ------- [5:255 -1:255 32 0] 
r 1.287711626 _1_ RTR  --- 4 message 32 [0 ffffffff 5 800] ------- [5:255 -1:255 32 0] 
r 1.287711626 _6_ RTR  --- 4 message 32 [0 ffffffff 5 800] ------- [5:255 -1:255 32 0] 
s 1.606821973 _1_ RTR  --- 5 message 32 [0 0 0 0] ------- [1:255 -1:255 32 0] 
s 1.607256973 _1_ MAC  --- 5 message 90 [0 ffffffff 1 800] ------- [1:255 -1:255 32 0] 
r 1.607977639 _0_ MAC  --- 5 message 32 [0 ffffffff 1 800] ------- [1:255 -1:255 32 0] 
r 1.607977639 _5_ MAC  --- 5 message 32 [0 ffffffff 1 800] ------- [1:255 -1:255 32 0] 
r 1.607977718 _4_ MAC  --- 5 message 32 [0 ffffffff 1 800] ------- [1:255 -1:255 32 0] 
r 1.608002639 _0_ RTR  --- 5 message 32 [0 ffffffff 1 800] ------- [1:255 -1:255 32 0] 
r 1.608002639 _5_ RTR  --- 5 message 32 [0 ffffffff 1 800] ------- [1:255 -1:255 32 0] 
r 1.608002718 _4_ RTR  --- 5 message 32 [0 ffffffff 1 800] ------- [1:255 -1:255 32 0] 
s 1.637007294 _3_ RTR  --- 6 message 32 [0 0 0 0] ------- [3:255 -1:255 32 0] 
s 1.637282294 _3_ MAC  --- 6 message 90 [0 ffffffff 3 800] ------- [3:255 -1:255 32 0] 
r 1.638002960 _2_ MAC  --- 6 message 32 [0 ffffffff 3 800] ------- [3:255 -1:255 32 0] 
r 1.638002960 _6_ MAC  --- 6 message 32 [0 ffffffff 3 800] ------- [3:255 -1:255 32 0] 
r 1.638003039 _4_ MAC  --- 6 message 32 [0 ffffffff 3 800] ------- [3:255 -1:255 32 0] 
r 1.638027960 _2_ RTR  --- 6 message 32 [0 ffffffff 3 800] ------- [3:255 -1:255 32 0] 
r 1.638027960 _6_ RTR  --- 6 message 32 [0 ffffffff 3 800] ------- [3:255 -1:255 32 0] 
r 1.638028039 _4_ RTR  --- 6 message 32 [0 ffffffff 3 800] ------- [3:255 -1:255 32 0] 
s 3.000000000 _0_ AGT  --- 7 tcp 1000 [0 0 0 0] ------- [0:0 3:0 32 0] [0 0] 0 0
r 3.000000000 _0_ RTR  --- 7 tcp 1000 [0 0 0 0] ------- [0:0 3:0 32 0] [0 0] 0 0
s 3.000000000 _1_ AGT  --- 8 tcp 1000 [0 0 0 0] ------- [1:0 6:0 32 0] [0 0] 0 0
r 3.000000000 _1_ RTR  --- 8 tcp 1000 [0 0 0 0] ------- [1:0 6:0 32 0] [0 0] 0 0
s 6.000000000 _0_ AGT  --- 9 tcp 1000 [0 0 0 0] ------- [0:0 3:0 32 0] [0 0] 0 0
r 6.000000000 _0_ RTR  --- 9 tcp 1000 [0 0 0 0] ------- [0:0 3:0 32 0] [0 0] 0 0
s 6.000000000 _0_ AGT  --- 10 tcp 1000 [0 0 0 0] ------- [0:0 3:0 32 0] [1 0] 0 0
r 6.000000000 _0_ RTR  --- 10 tcp 1000 [0 0 0 0] ------- [0:0 3:0 32 0] [1 0] 0 0
s 6.000000000 _1_ AGT  --- 11 tcp 1000 [0 0 0 0] ------- [1:0 6:0 32 0] [0 0] 0 0
r 6.000000000 _1_ RTR  --- 11 tcp 1000 [0 0 0 0] ------- [1:0 6:0 32 0] [0 0] 0 0
s 6.000000000 _1_ AGT  --- 12 tcp 1000 [0 0 0 0] ------- [1:0 6:0 32 0] [1 0] 0 0
r 6.000000000 _1_ RTR  --- 12 tcp 1000 [0 0 0 0] ------- [1:0 6:0 32 0] [1 0] 0 0
s 12.000000000 _0_ AGT  --- 13 tcp 1000 [0 0 0 0] ------- [0:0 3:0 32 0] [0 0] 0 0
r 12.000000000 _0_ RTR  --- 13 tcp 1000 [0 0 0 0] ------- [0:0 3:0 32 0] [0 0] 0 0
s 12.000000000 _0_ AGT  --- 14 tcp 1000 [0 0 0 0] ------- [0:0 3:0 32 0] [1 0] 0 0
r 12.000000000 _0_ RTR  --- 14 tcp 1000 [0 0 0 0] ------- [0:0 3:0 32 0] [1 0] 0 0
s 12.000000000 _1_ AGT  --- 15 tcp 1000 [0 0 0 0] ------- [1:0 6:0 32 0] [0 0] 0 0
r 12.000000000 _1_ RTR  --- 15 tcp 1000 [0 0 0 0] ------- [1:0 6:0 32 0] [0 0] 0 0
s 12.000000000 _1_ AGT  --- 16 tcp 1000 [0 0 0 0] ------- [1:0 6:0 32 0] [1 0] 0 0
r 12.000000000 _1_ RTR  --- 16 tcp 1000 [0 0 0 0] ------- [1:0 6:0 32 0] [1 0] 0 0
s 12.343623214 _4_ RTR  --- 17 message 32 [0 0 0 0] ------- [4:255 -1:255 32 0] 
s 12.343898214 _4_ MAC  --- 17 message 90 [0 ffffffff 4 800] ------- [4:255 -1:255 32 0] 
r 12.344618547 _2_ MAC  --- 17 message 32 [0 ffffffff 4 800] ------- [4:255 -1:255 32 0] 
r 12.344618547 _5_ MAC  --- 17 message 32 [0 ffffffff 4 800] ------- [4:255 -1:255 32 0] 
r 12.344618959 _1_ MAC  --- 17 message 32 [0 ffffffff 4 800] ------- [4:255 -1:255 32 0] 
r 12.344618959 _0_ MAC  --- 17 message 32 [0 ffffffff 4 800] ------- [4:255 -1:255 32 0] 
r 12.344618959 _3_ MAC  --- 17 message 32 [0 ffffffff 4 800] ------- [4:255 -1:255 32 0] 
r 12.344618959 _6_ MAC  --- 17 message 32 [0 ffffffff 4 800] ------- [4:255 -1:255 32 0] 
r 12.344643547 _2_ RTR  --- 17 message 32 [0 ffffffff 4 800] ------- [4:255 -1:255 32 0] 
r 12.344643547 _5_ RTR  --- 17 message 32 [0 ffffffff 4 800] ------- [4:255 -1:255 32 0] 
r 12.344643959 _1_ RTR  --- 17 message 32 [0 ffffffff 4 800] ------- [4:255 -1:255 32 0] 
r 12.344643959 _0_ RTR  --- 17 message 32 [0 ffffffff 4 800] ------- [4:255 -1:255 32 0] 
r 12.344643959 _3_ RTR  --- 17 message 32 [0 ffffffff 4 800] ------- [4:255 -1:255 32 0] 
r 12.344643959 _6_ RTR  --- 17 message 32 [0 ffffffff 4 800] ------- [4:255 -1:255 32 0] 
s 12.620384948 _5_ RTR  --- 25 message 32 [0 0 0 0] ------- [5:255 -1:255 32 0] 
s 12.620799948 _5_ MAC  --- 25 message 90 [0 ffffffff 5 800] ------- [5:255 -1:255 32 0] 
s 12.620860891 _3_ RTR  --- 24 message 32 [0 0 0 0] ------- [3:255 -1:255 32 0] 
r 12.621520282 _4_ MAC  --- 25 message 32 [0 ffffffff 5 800] ------- [5:255 -1:255 32 0] 
r 12.621520615 _2_ MAC  --- 25 message 32 [0 ffffffff 5 800] ------- [5:255 -1:255 32 0] 
r 12.621520615 _1_ MAC  --- 25 message 32 [0 ffffffff 5 800] ------- [5:255 -1:255 32 0] 
r 12.621520615 _6_ MAC  --- 25 message 32 [0 ffffffff 5 800] ------- [5:255 -1:255 32 0] 
r 12.621545282 _4_ RTR  --- 25 message 32 [0 ffffffff 5 800] ------- [5:255 -1:255 32 0] 
r 12.621545615 _2_ RTR  --- 25 message 32 [0 ffffffff 5 800] ------- [5:255 -1:255 32 0] 
r 12.621545615 _1_ RTR  --- 25 message 32 [0 ffffffff 5 800] ------- [5:255 -1:255 32 0] 
s 12.621545615 _1_ RTR  --- 8 tcp 1040 [0 0 0 0] ------- [1:0 6:0 32 5] [0 0] 0 0
s 12.621545615 _1_ RTR  --- 11 tcp 1040 [0 0 0 0] ------- [1:0 6:0 32 5] [0 0] 0 0
D 12.621545615 _1_ IFQ  ARP 8 tcp 1040 [0 0 1 800] ------- [1:0 6:0 32 5] [0 0] 0 0
s 12.621545615 _1_ RTR  --- 12 tcp 1040 [0 0 0 0] ------- [1:0 6:0 32 5] [1 0] 0 0
D 12.621545615 _1_ IFQ  ARP 11 tcp 1040 [0 0 1 800] ------- [1:0 6:0 32 5] [0 0] 0 0
s 12.621545615 _1_ RTR  --- 15 tcp 1040 [0 0 0 0] ------- [1:0 6:0 32 5] [0 0] 0 0
D 12.621545615 _1_ RTR  CBK 12 tcp 1040 [0 0 1 800] ------- [1:0 6:0 32 5] [1 0] 0 0
D 12.621545615 _1_ RTR  CBK 15 tcp 1040 [0 0 1 800] ------- [1:0 6:0 32 5] [0 0] 0 0
s 12.621545615 _1_ RTR  --- 16 tcp 1040 [0 0 0 0] ------- [1:0 6:0 32 5] [1 0] 0 0
r 12.621545615 _6_ RTR  --- 25 message 32 [0 ffffffff 5 800] ------- [5:255 -1:255 32 0] 
s 12.621780615 _1_ MAC  --- 0 ARP 86 [0 ffffffff 1 806] ------- [REQUEST 1/1 0/5]
r 12.622469282 _0_ MAC  --- 0 ARP 28 [0 ffffffff 1 806] ------- [REQUEST 1/1 0/5]
r 12.622469282 _5_ MAC  --- 0 ARP 28 [0 ffffffff 1 806] ------- [REQUEST 1/1 0/5]
r 12.622469360 _4_ MAC  --- 0 ARP 28 [0 ffffffff 1 806] ------- [REQUEST 1/1 0/5]
s 12.622599282 _5_ MAC  --- 0 RTS 44 [52e 1 5 0] 
r 12.622951948 _1_ MAC  --- 0 RTS 44 [52e 1 5 0] 
s 12.622961948 _1_ MAC  --- 0 CTS 38 [3f4 5 0 0] 
r 12.623266615 _5_ MAC  --- 0 CTS 38 [3f4 5 0 0] 
s 12.623276615 _5_ MAC  --- 0 ARP 86 [13a 1 5 806] ------- [REPLY 5/5 1/1]
r 12.623965282 _1_ MAC  --- 0 ARP 28 [13a 1 5 806] ------- [REPLY 5/5 1/1]
s 12.623975282 _1_ MAC  --- 0 ACK 38 [0 5 0 0] 
r 12.624279948 _5_ MAC  --- 0 ACK 38 [0 5 0 0] 
s 12.624529282 _1_ MAC  --- 0 ARP 86 [0 ffffffff 1 806] ------- [REQUEST 1/1 0/5]
r 12.625217948 _0_ MAC  --- 0 ARP 28 [0 ffffffff 1 806] ------- [REQUEST 1/1 0/5]
r 12.625217948 _5_ MAC  --- 0 ARP 28 [0 ffffffff 1 806] ------- [REQUEST 1/1 0/5]
r 12.625218027 _4_ MAC  --- 0 ARP 28 [0 ffffffff 1 806] ------- [REQUEST 1/1 0/5]
s 12.625267282 _1_ MAC  --- 0 ARP 86 [0 ffffffff 1 806] ------- [REQUEST 1/1 0/5]
r 12.625955948 _0_ MAC  --- 0 ARP 28 [0 ffffffff 1 806] ------- [REQUEST 1/1 0/5]
r 12.625955948 _5_ MAC  --- 0 ARP 28 [0 ffffffff 1 806] ------- [REQUEST 1/1 0/5]
r 12.625956027 _4_ MAC  --- 0 ARP 28 [0 ffffffff 1 806] ------- [REQUEST 1/1 0/5]
s 12.626225282 _1_ MAC  --- 0 ARP 86 [0 ffffffff 1 806] ------- [REQUEST 1/1 0/5]
r 12.626913948 _0_ MAC  --- 0 ARP 28 [0 ffffffff 1 806] ------- [REQUEST 1/1 0/5]
r 12.626913948 _5_ MAC  --- 0 ARP 28 [0 ffffffff 1 806] ------- [REQUEST 1/1 0/5]
r 12.626914027 _4_ MAC  --- 0 ARP 28 [0 ffffffff 1 806] ------- [REQUEST 1/1 0/5]
s 12.627043948 _5_ MAC  --- 0 RTS 44 [52e 1 5 0] 
r 12.627396615 _1_ MAC  --- 0 RTS 44 [52e 1 5 0] 
s 12.627406615 _1_ MAC  --- 0 CTS 38 [3f4 5 0 0] 
r 12.627711282 _5_ MAC  --- 0 CTS 38 [3f4 5 0 0] 
s 12.627721282 _5_ MAC  --- 0 ARP 86 [13a 1 5 806] ------- [REPLY 5/5 1/1]
r 12.628409948 _1_ MAC  --- 0 ARP 28 [13a 1 5 806] ------- [REPLY 5/5 1/1]
s 12.628419948 _1_ MAC  --- 0 ACK 38 [0 5 0 0] 
r 12.628724615 _5_ MAC  --- 0 ACK 38 [0 5 0 0] 
s 12.628994615 _5_ MAC  --- 0 RTS 44 [52e 1 5 0] 
r 12.629347282 _1_ MAC  --- 0 RTS 44 [52e 1 5 0] 
s 12.629357282 _1_ MAC  --- 0 CTS 38 [3f4 5 0 0] 
r 12.629661948 _5_ MAC  --- 0 CTS 38 [3f4 5 0 0] 
s 12.629671948 _5_ MAC  --- 0 ARP 86 [13a 1 5 806] ------- [REPLY 5/5 1/1]
r 12.630360615 _1_ MAC  --- 0 ARP 28 [13a 1 5 806] ------- [REPLY 5/5 1/1]
s 12.630370615 _1_ MAC  --- 0 ACK 38 [0 5 0 0] 
r 12.630675282 _5_ MAC  --- 0 ACK 38 [0 5 0 0] 
s 12.630744615 _1_ MAC  --- 0 RTS 44 [24ce 5 1 0] 
r 12.631097282 _5_ MAC  --- 0 RTS 44 [24ce 5 1 0] 
s 12.631107282 _5_ MAC  --- 0 CTS 38 [2394 1 0 0] 
r 12.631411948 _1_ MAC  --- 0 CTS 38 [2394 1 0 0] 
s 12.631421948 _1_ MAC  --- 16 tcp 1098 [13a 5 1 800] ------- [1:0 6:0 32 5] [1 0] 0 0
s 12.633433995 _0_ RTR  --- 26 message 32 [0 0 0 0] ------- [0:255 -1:255 32 0] 
r 12.640206615 _5_ MAC  --- 16 tcp 1040 [13a 5 1 800] ------- [1:0 6:0 32 5] [1 0] 1 0
s 12.640216615 _5_ MAC  --- 0 ACK 38 [0 1 0 0] 
r 12.640231615 _5_ RTR  --- 16 tcp 1040 [13a 5 1 800] ------- [1:0 6:0 32 5] [1 0] 1 0
f 12.640231615 _5_ RTR  --- 16 tcp 1040 [13a 5 1 800] ------- [1:0 6:0 31 6] [1 0] 1 0
r 12.640521282 _1_ MAC  --- 0 ACK 38 [0 1 0 0] 
s 12.640650615 _5_ MAC  --- 0 RTS 44 [52e 1 5 0] 
r 12.641003282 _1_ MAC  --- 0 RTS 44 [52e 1 5 0] 
s 12.641013282 _1_ MAC  --- 0 CTS 38 [3f4 5 0 0] 
r 12.641317948 _5_ MAC  --- 0 CTS 38 [3f4 5 0 0] 
s 12.641327948 _5_ MAC  --- 0 ARP 86 [13a 1 5 806] ------- [REPLY 5/5 1/1]
r 12.642016615 _1_ MAC  --- 0 ARP 28 [13a 1 5 806] ------- [REPLY 5/5 1/1]
s 12.642026615 _1_ MAC  --- 0 ACK 38 [0 5 0 0] 
r 12.642331282 _5_ MAC  --- 0 ACK 38 [0 5 0 0] 
s 12.642621282 _5_ MAC  --- 0 ARP 86 [0 ffffffff 5 806] ------- [REQUEST 5/5 0/6]
r 12.643309615 _4_ MAC  --- 0 ARP 28 [0 ffffffff 5 806] ------- [REQUEST 5/5 0/6]
r 12.643309948 _2_ MAC  --- 0 ARP 28 [0 ffffffff 5 806] ------- [REQUEST 5/5 0/6]
r 12.643309948 _1_ MAC  --- 0 ARP 28 [0 ffffffff 5 806] ------- [REQUEST 5/5 0/6]
r 12.643309948 _6_ MAC  --- 0 ARP 28 [0 ffffffff 5 806] ------- [REQUEST 5/5 0/6]
s 12.643644948 _6_ MAC  --- 0 RTS 44 [52e 5 6 0] 
r 12.643997615 _5_ MAC  --- 0 RTS 44 [52e 5 6 0] 
s 12.644007615 _5_ MAC  --- 0 CTS 38 [3f4 6 0 0] 
r 12.644312282 _6_ MAC  --- 0 CTS 38 [3f4 6 0 0] 
s 12.644322282 _6_ MAC  --- 0 ARP 86 [13a 5 6 806] ------- [REPLY 6/6 5/5]
r 12.645010948 _5_ MAC  --- 0 ARP 28 [13a 5 6 806] ------- [REPLY 6/6 5/5]
s 12.645020948 _5_ MAC  --- 0 ACK 38 [0 6 0 0] 
r 12.645325615 _6_ MAC  --- 0 ACK 38 [0 6 0 0] 
s 12.645394948 _5_ MAC  --- 0 RTS 44 [24ce 6 5 0] 
r 12.645747615 _6_ MAC  --- 0 RTS 44 [24ce 6 5 0] 
s 12.645757615 _6_ MAC  --- 0 CTS 38 [2394 5 0 0] 
r 12.646062282 _5_ MAC  --- 0 CTS 38 [2394 5 0 0] 
s 12.646072282 _5_ MAC  --- 16 tcp 1098 [13a 6 5 800] ------- [1:0 6:0 31 6] [1 0] 1 0
r 12.654856948 _6_ MAC  --- 16 tcp 1040 [13a 6 5 800] ------- [1:0 6:0 31 6] [1 0] 2 0
s 12.654866948 _6_ MAC  --- 0 ACK 38 [0 5 0 0] 
r 12.654881948 _6_ AGT  --- 16 tcp 1040 [13a 6 5 800] ------- [1:0 6:0 31 6] [1 0] 2 0
s 12.654881948 _6_ AGT  --- 27 ack 40 [0 0 0 0] ------- [6:0 1:0 32 0] [-1 0] 0 0
r 12.654881948 _6_ RTR  --- 27 ack 40 [0 0 0 0] ------- [6:0 1:0 32 0] [-1 0] 0 0
r 12.655171615 _5_ MAC  --- 0 ACK 38 [0 5 0 0] 
s 12.655706439 _0_ MAC  --- 26 message 90 [0 ffffffff 0 800] ------- [0:255 -1:255 32 0] 
r 12.656427106 _1_ MAC  --- 26 message 32 [0 ffffffff 0 800] ------- [0:255 -1:255 32 0] 
r 12.656427106 _2_ MAC  --- 26 message 32 [0 ffffffff 0 800] ------- [0:255 -1:255 32 0] 
r 12.656427184 _4_ MAC  --- 26 message 32 [0 ffffffff 0 800] ------- [0:255 -1:255 32 0] 
r 12.656452106 _1_ RTR  --- 26 message 32 [0 ffffffff 0 800] ------- [0:255 -1:255 32 0] 
r 12.656452106 _2_ RTR  --- 26 message 32 [0 ffffffff 0 800] ------- [0:255 -1:255 32 0] 
r 12.656452184 _4_ RTR  --- 26 message 32 [0 ffffffff 0 800] ------- [0:255 -1:255 32 0] 
s 12.656921772 _3_ MAC  --- 24 message 90 [0 ffffffff 3 800] ------- [3:255 -1:255 32 0] 
r 12.657642439 _2_ MAC  --- 24 message 32 [0 ffffffff 3 800] ------- [3:255 -1:255 32 0] 
r 12.657642439 _6_ MAC  --- 24 message 32 [0 ffffffff 3 800] ------- [3:255 -1:255 32 0] 
r 12.657642518 _4_ MAC  --- 24 message 32 [0 ffffffff 3 800] ------- [3:255 -1:255 32 0] 
r 12.657667439 _2_ RTR  --- 24 message 32 [0 ffffffff 3 800] ------- [3:255 -1:255 32 0] 
r 12.657667439 _6_ RTR  --- 24 message 32 [0 ffffffff 3 800] ------- [3:255 -1:255 32 0] 
r 12.657667518 _4_ RTR  --- 24 message 32 [0 ffffffff 3 800] ------- [3:255 -1:255 32 0] 
s 12.888607857 _1_ RTR  --- 28 message 44 [0 0 0 0] ------- [1:255 -1:255 32 0] 
s 12.889142857 _1_ MAC  --- 28 message 102 [0 ffffffff 1 800] ------- [1:255 -1:255 32 0] 
r 12.889959523 _0_ MAC  --- 28 message 44 [0 ffffffff 1 800] ------- [1:255 -1:255 32 0] 
r 12.889959523 _5_ MAC  --- 28 message 44 [0 ffffffff 1 800] ------- [1:255 -1:255 32 0] 
r 12.889959602 _4_ MAC  --- 28 message 44 [0 ffffffff 1 800] ------- [1:255 -1:255 32 0] 
r 12.889984523 _0_ RTR  --- 28 message 44 [0 ffffffff 1 800] ------- [1:255 -1:255 32 0] 
r 12.889984523 _5_ RTR  --- 28 message 44 [0 ffffffff 1 800] ------- [1:255 -1:255 32 0] 
r 12.889984602 _4_ RTR  --- 28 message 44 [0 ffffffff 1 800] ------- [1:255 -1:255 32 0] 
s 12.892611505 _2_ RTR  --- 29 message 32 [0 0 0 0] ------- [2:255 -1:255 32 0] 
s 12.892886505 _2_ MAC  --- 29 message 90 [0 ffffffff 2 800] ------- [2:255 -1:255 32 0] 
r 12.893606838 _4_ MAC  --- 29 message 32 [0 ffffffff 2 800] ------- [2:255 -1:255 32 0] 
r 12.893607171 _0_ MAC  --- 29 message 32 [0 ffffffff 2 800] ------- [2:255 -1:255 32 0] 
r 12.893607171 _5_ MAC  --- 29 message 32 [0 ffffffff 2 800] ------- [2:255 -1:255 32 0] 
r 12.893607171 _3_ MAC  --- 29 message 32 [0 ffffffff 2 800] ------- [2:255 -1:255 32 0] 
r 12.893631838 _4_ RTR  --- 29 message 32 [0 ffffffff 2 800] ------- [2:255 -1:255 32 0] 
r 12.893632171 _0_ RTR  --- 29 message 32 [0 ffffffff 2 800] ------- [2:255 -1:255 32 0] 
r 12.893632171 _5_ RTR  --- 29 message 32 [0 ffffffff 2 800] ------- [2:255 -1:255 32 0] 
r 12.893632171 _3_ RTR  --- 29 message 32 [0 ffffffff 2 800] ------- [2:255 -1:255 32 0] 
s 13.291923827 _6_ RTR  --- 30 message 32 [0 0 0 0] ------- [6:255 -1:255 32 0] 
s 13.292258827 _6_ MAC  --- 30 message 90 [0 ffffffff 6 800] ------- [6:255 -1:255 32 0] 
r 13.292979493 _3_ MAC  --- 30 message 32 [0 ffffffff 6 800] ------- [6:255 -1:255 32 0] 
r 13.292979493 _5_ MAC  --- 30 message 32 [0 ffffffff 6 800] ------- [6:255 -1:255 32 0] 
r 13.292979572 _4_ MAC  --- 30 message 32 [0 ffffffff 6 800] ------- [6:255 -1:255 32 0] 
r 13.293004493 _3_ RTR  --- 30 message 32 [0 ffffffff 6 800] ------- [6:255 -1:255 32 0] 
r 13.293004493 _5_ RTR  --- 30 message 32 [0 ffffffff 6 800] ------- [6:255 -1:255 32 0] 
r 13.293004572 _4_ RTR  --- 30 message 32 [0 ffffffff 6 800] ------- [6:255 -1:255 32 0] 
s 13.300590374 _3_ RTR  --- 31 message 56 [0 0 0 0] ------- [3:255 -1:255 32 0] 
s 13.301265374 _3_ MAC  --- 31 message 114 [0 ffffffff 3 800] ------- [3:255 -1:255 32 0] 
r 13.302178041 _2_ MAC  --- 31 message 56 [0 ffffffff 3 800] ------- [3:255 -1:255 32 0] 
r 13.302178041 _6_ MAC  --- 31 message 56 [0 ffffffff 3 800] ------- [3:255 -1:255 32 0] 
r 13.302178119 _4_ MAC  --- 31 message 56 [0 ffffffff 3 800] ------- [3:255 -1:255 32 0] 
r 13.302203041 _2_ RTR  --- 31 message 56 [0 ffffffff 3 800] ------- [3:255 -1:255 32 0] 
r 13.302203041 _6_ RTR  --- 31 message 56 [0 ffffffff 3 800] ------- [3:255 -1:255 32 0] 
r 13.302203119 _4_ RTR  --- 31 message 56 [0 ffffffff 3 800] ------- [3:255 -1:255 32 0] 
s 13.342768897 _4_ RTR  --- 32 message 80 [0 0 0 0] ------- [4:255 -1:255 32 0] 
s 13.342963897 _4_ MAC  --- 32 message 138 [0 ffffffff 4 800] ------- [4:255 -1:255 32 0] 
r 13.344068230 _2_ MAC  --- 32 message 80 [0 ffffffff 4 800] ------- [4:255 -1:255 32 0] 
r 13.344068230 _5_ MAC  --- 32 message 80 [0 ffffffff 4 800] ------- [4:255 -1:255 32 0] 
r 13.344068642 _1_ MAC  --- 32 message 80 [0 ffffffff 4 800] ------- [4:255 -1:255 32 0] 
r 13.344068642 _0_ MAC  --- 32 message 80 [0 ffffffff 4 800] ------- [4:255 -1:255 32 0] 
r 13.344068642 _3_ MAC  --- 32 message 80 [0 ffffffff 4 800] ------- [4:255 -1:255 32 0] 
r 13.344068642 _6_ MAC  --- 32 message 80 [0 ffffffff 4 800] ------- [4:255 -1:255 32 0] 
r 13.344093230 _2_ RTR  --- 32 message 80 [0 ffffffff 4 800] ------- [4:255 -1:255 32 0] 
r 13.344093230 _5_ RTR  --- 32 message 80 [0 ffffffff 4 800] ------- [4:255 -1:255 32 0] 
r 13.344093642 _1_ RTR  --- 32 message 80 [0 ffffffff 4 800] ------- [4:255 -1:255 32 0] 
r 13.344093642 _0_ RTR  --- 32 message 80 [0 ffffffff 4 800] ------- [4:255 -1:255 32 0] 
r 13.344093642 _3_ RTR  --- 32 message 80 [0 ffffffff 4 800] ------- [4:255 -1:255 32 0] 
r 13.344093642 _6_ RTR  --- 32 message 80 [0 ffffffff 4 800] ------- [4:255 -1:255 32 0] 
s 13.628432688 _5_ RTR  --- 33 message 56 [0 0 0 0] ------- [5:255 -1:255 32 0] 
s 13.628807688 _5_ MAC  --- 33 message 114 [0 ffffffff 5 800] ------- [5:255 -1:255 32 0] 
r 13.629720022 _4_ MAC  --- 33 message 56 [0 ffffffff 5 800] ------- [5:255 -1:255 32 0] 
r 13.629720355 _2_ MAC  --- 33 message 56 [0 ffffffff 5 800] ------- [5:255 -1:255 32 0] 
r 13.629720355 _1_ MAC  --- 33 message 56 [0 ffffffff 5 800] ------- [5:255 -1:255 32 0] 
r 13.629720355 _6_ MAC  --- 33 message 56 [0 ffffffff 5 800] ------- [5:255 -1:255 32 0] 
r 13.629745022 _4_ RTR  --- 33 message 56 [0 ffffffff 5 800] ------- [5:255 -1:255 32 0] 
r 13.629745355 _2_ RTR  --- 33 message 56 [0 ffffffff 5 800] ------- [5:255 -1:255 32 0] 
r 13.629745355 _1_ RTR  --- 33 message 56 [0 ffffffff 5 800] ------- [5:255 -1:255 32 0] 
r 13.629745355 _6_ RTR  --- 33 message 56 [0 ffffffff 5 800] ------- [5:255 -1:255 32 0] 
s 13.629745355 _6_ RTR  --- 27 ack 80 [0 0 0 0] ------- [6:0 1:0 32 5] [-1 0] 0 0
s 13.630120355 _6_ MAC  --- 0 RTS 44 [6ce 5 6 0] 
r 13.630473022 _5_ MAC  --- 0 RTS 44 [6ce 5 6 0] 
s 13.630483022 _5_ MAC  --- 0 CTS 38 [594 6 0 0] 
r 13.630787688 _6_ MAC  --- 0 CTS 38 [594 6 0 0] 
s 13.630797688 _6_ MAC  --- 27 ack 138 [13a 5 6 800] ------- [6:0 1:0 32 5] [-1 0] 0 0
r 13.631902355 _5_ MAC  --- 27 ack 80 [13a 5 6 800] ------- [6:0 1:0 32 5] [-1 0] 1 0
s 13.631912355 _5_ MAC  --- 0 ACK 38 [0 6 0 0] 
r 13.631927355 _5_ RTR  --- 27 ack 80 [13a 5 6 800] ------- [6:0 1:0 32 5] [-1 0] 1 0
f 13.631927355 _5_ RTR  --- 27 ack 80 [13a 5 6 800] ------- [6:0 1:0 31 1] [-1 0] 1 0
r 13.632217022 _6_ MAC  --- 0 ACK 38 [0 6 0 0] 
s 13.632606355 _5_ MAC  --- 0 RTS 44 [6ce 1 5 0] 
r 13.632959022 _1_ MAC  --- 0 RTS 44 [6ce 1 5 0] 
s 13.632969022 _1_ MAC  --- 0 CTS 38 [594 5 0 0] 
r 13.633273688 _5_ MAC  --- 0 CTS 38 [594 5 0 0] 
s 13.633283688 _5_ MAC  --- 27 ack 138 [13a 1 5 800] ------- [6:0 1:0 31 1] [-1 0] 1 0
r 13.634388355 _1_ MAC  --- 27 ack 80 [13a 1 5 800] ------- [6:0 1:0 31 1] [-1 0] 2 0
s 13.634398355 _1_ MAC  --- 0 ACK 38 [0 5 0 0] 
r 13.634413355 _1_ AGT  --- 27 ack 80 [13a 1 5 800] ------- [6:0 1:0 31 1] [-1 0] 2 0
r 13.634703022 _5_ MAC  --- 0 ACK 38 [0 5 0 0] 
s 13.635723349 _0_ RTR  --- 34 message 44 [0 0 0 0] ------- [0:255 -1:255 32 0] 
s 13.636018349 _0_ MAC  --- 34 message 102 [0 ffffffff 0 800] ------- [0:255 -1:255 32 0] 
r 13.636835016 _1_ MAC  --- 34 message 44 [0 ffffffff 0 800] ------- [0:255 -1:255 32 0] 
r 13.636835016 _2_ MAC  --- 34 message 44 [0 ffffffff 0 800] ------- [0:255 -1:255 32 0] 
r 13.636835094 _4_ MAC  --- 34 message 44 [0 ffffffff 0 800] ------- [0:255 -1:255 32 0] 
r 13.636860016 _1_ RTR  --- 34 message 44 [0 ffffffff 0 800] ------- [0:255 -1:255 32 0] 
r 13.636860016 _2_ RTR  --- 34 message 44 [0 ffffffff 0 800] ------- [0:255 -1:255 32 0] 
r 13.636860094 _4_ RTR  --- 34 message 44 [0 ffffffff 0 800] ------- [0:255 -1:255 32 0] 
s 13.894651186 _2_ RTR  --- 35 message 44 [0 0 0 0] ------- [2:255 -1:255 32 0] 
s 13.895126186 _2_ MAC  --- 35 message 102 [0 ffffffff 2 800] ------- [2:255 -1:255 32 0] 
r 13.895942519 _4_ MAC  --- 35 message 44 [0 ffffffff 2 800] ------- [2:255 -1:255 32 0] 
r 13.895942852 _0_ MAC  --- 35 message 44 [0 ffffffff 2 800] ------- [2:255 -1:255 32 0] 
r 13.895942852 _5_ MAC  --- 35 message 44 [0 ffffffff 2 800] ------- [2:255 -1:255 32 0] 
r 13.895942852 _3_ MAC  --- 35 message 44 [0 ffffffff 2 800] ------- [2:255 -1:255 32 0] 
r 13.895967519 _4_ RTR  --- 35 message 44 [0 ffffffff 2 800] ------- [2:255 -1:255 32 0] 
r 13.895967852 _0_ RTR  --- 35 message 44 [0 ffffffff 2 800] ------- [2:255 -1:255 32 0] 
r 13.895967852 _5_ RTR  --- 35 message 44 [0 ffffffff 2 800] ------- [2:255 -1:255 32 0] 
r 13.895967852 _3_ RTR  --- 35 message 44 [0 ffffffff 2 800] ------- [2:255 -1:255 32 0] 
s 13.896813680 _1_ RTR  --- 36 message 56 [0 0 0 0] ------- [1:255 -1:255 32 0] 
s 13.897048680 _1_ MAC  --- 36 message 114 [0 ffffffff 1 800] ------- [1:255 -1:255 32 0] 
r 13.897961346 _0_ MAC  --- 36 message 56 [0 ffffffff 1 800] ------- [1:255 -1:255 32 0] 
r 13.897961346 _5_ MAC  --- 36 message 56 [0 ffffffff 1 800] ------- [1:255 -1:255 32 0] 
r 13.897961425 _4_ MAC  --- 36 message 56 [0 ffffffff 1 800] ------- [1:255 -1:255 32 0] 
r 13.897986346 _0_ RTR  --- 36 message 56 [0 ffffffff 1 800] ------- [1:255 -1:255 32 0] 
r 13.897986346 _5_ RTR  --- 36 message 56 [0 ffffffff 1 800] ------- [1:255 -1:255 32 0] 
r 13.897986425 _4_ RTR  --- 36 message 56 [0 ffffffff 1 800] ------- [1:255 -1:255 32 0] 
s 14.080497093 _0_ RTR  --- 37 message 56 [0 0 0 0] ------- [0:255 -1:255 32 0] 
s 14.080932093 _0_ MAC  --- 37 message 114 [0 ffffffff 0 800] ------- [0:255 -1:255 32 0] 
r 14.081844759 _1_ MAC  --- 37 message 56 [0 ffffffff 0 800] ------- [0:255 -1:255 32 0] 
r 14.081844759 _2_ MAC  --- 37 message 56 [0 ffffffff 0 800] ------- [0:255 -1:255 32 0] 
r 14.081844838 _4_ MAC  --- 37 message 56 [0 ffffffff 0 800] ------- [0:255 -1:255 32 0] 
r 14.081869759 _1_ RTR  --- 37 message 56 [0 ffffffff 0 800] ------- [0:255 -1:255 32 0] 
r 14.081869759 _2_ RTR  --- 37 message 56 [0 ffffffff 0 800] ------- [0:255 -1:255 32 0] 
r 14.081869838 _4_ RTR  --- 37 message 56 [0 ffffffff 0 800] ------- [0:255 -1:255 32 0] 
s 14.289423816 _6_ RTR  --- 38 message 44 [0 0 0 0] ------- [6:255 -1:255 32 0] 
s 14.289998816 _6_ MAC  --- 38 message 102 [0 ffffffff 6 800] ------- [6:255 -1:255 32 0] 
r 14.290815483 _3_ MAC  --- 38 message 44 [0 ffffffff 6 800] ------- [6:255 -1:255 32 0] 
r 14.290815483 _5_ MAC  --- 38 message 44 [0 ffffffff 6 800] ------- [6:255 -1:255 32 0] 
r 14.290815561 _4_ MAC  --- 38 message 44 [0 ffffffff 6 800] ------- [6:255 -1:255 32 0] 
r 14.290840483 _3_ RTR  --- 38 message 44 [0 ffffffff 6 800] ------- [6:255 -1:255 32 0] 
r 14.290840483 _5_ RTR  --- 38 message 44 [0 ffffffff 6 800] ------- [6:255 -1:255 32 0] 
r 14.290840561 _4_ RTR  --- 38 message 44 [0 ffffffff 6 800] ------- [6:255 -1:255 32 0] 
s 14.340902345 _4_ RTR  --- 40 message 32 [0 0 0 0] ------- [4:255 -1:255 32 0] 
s 14.340997345 _4_ MAC  --- 40 message 90 [0 ffffffff 4 800] ------- [4:255 -1:255 32 0] 
r 14.341717678 _2_ MAC  --- 40 message 32 [0 ffffffff 4 800] ------- [4:255 -1:255 32 0] 
r 14.341717678 _5_ MAC  --- 40 message 32 [0 ffffffff 4 800] ------- [4:255 -1:255 32 0] 
r 14.341718090 _1_ MAC  --- 40 message 32 [0 ffffffff 4 800] ------- [4:255 -1:255 32 0] 
r 14.341718090 _0_ MAC  --- 40 message 32 [0 ffffffff 4 800] ------- [4:255 -1:255 32 0] 
r 14.341718090 _3_ MAC  --- 40 message 32 [0 ffffffff 4 800] ------- [4:255 -1:255 32 0] 
r 14.341718090 _6_ MAC  --- 40 message 32 [0 ffffffff 4 800] ------- [4:255 -1:255 32 0] 
r 14.341742678 _2_ RTR  --- 40 message 32 [0 ffffffff 4 800] ------- [4:255 -1:255 32 0] 
r 14.341742678 _5_ RTR  --- 40 message 32 [0 ffffffff 4 800] ------- [4:255 -1:255 32 0] 
r 14.341743090 _1_ RTR  --- 40 message 32 [0 ffffffff 4 800] ------- [4:255 -1:255 32 0] 
r 14.341743090 _0_ RTR  --- 40 message 32 [0 ffffffff 4 800] ------- [4:255 -1:255 32 0] 
r 14.341743090 _3_ RTR  --- 40 message 32 [0 ffffffff 4 800] ------- [4:255 -1:255 32 0] 
r 14.341743090 _6_ RTR  --- 40 message 32 [0 ffffffff 4 800] ------- [4:255 -1:255 32 0] 
s 14.906793234 _2_ RTR  --- 41 message 44 [0 0 0 0] ------- [2:255 -1:255 32 0] 
s 14.906928234 _2_ MAC  --- 41 message 102 [0 ffffffff 2 800] ------- [2:255 -1:255 32 0] 
r 14.907744567 _4_ MAC  --- 41 message 44 [0 ffffffff 2 800] ------- [2:255 -1:255 32 0] 
r 14.907744901 _0_ MAC  --- 41 message 44 [0 ffffffff 2 800] ------- [2:255 -1:255 32 0] 
r 14.907744901 _5_ MAC  --- 41 message 44 [0 ffffffff 2 800] ------- [2:255 -1:255 32 0] 
r 14.907744901 _3_ MAC  --- 41 message 44 [0 ffffffff 2 800] ------- [2:255 -1:255 32 0] 
r 14.907769567 _4_ RTR  --- 41 message 44 [0 ffffffff 2 800] ------- [2:255 -1:255 32 0] 
r 14.907769901 _0_ RTR  --- 41 message 44 [0 ffffffff 2 800] ------- [2:255 -1:255 32 0] 
r 14.907769901 _5_ RTR  --- 41 message 44 [0 ffffffff 2 800] ------- [2:255 -1:255 32 0] 
r 14.907769901 _3_ RTR  --- 41 message 44 [0 ffffffff 2 800] ------- [2:255 -1:255 32 0] 
s 15.096509203 _6_ RTR  --- 42 message 56 [0 0 0 0] ------- [6:255 -1:255 32 0] 
s 15.096604203 _6_ MAC  --- 42 message 114 [0 ffffffff 6 800] ------- [6:255 -1:255 32 0] 