n -t * -s 0  -x 0 -y 0 -Z 0 -z 20  -v circle -c black
n -t * -s 1  -x 0 -y 0 -Z 0 -z 20  -v circle -c black
n -t * -s 2  -x 0 -y 0 -Z 0 -z 20  -v circle -c black
n -t * -s 3  -x 0 -y 0 -Z 0 -z 20  -v circle -c black
n -t * -s 4  -x 0 -y 0 -Z 0 -z 20  -v circle -c black
n -t * -s 5  -x 0 -y 0 -Z 0 -z 20  -v circle -c black
n -t * -s 6  -x 0 -y 0 -Z 0 -z 20  -v circle -c black
V -t * -v 1.0a5 -a 0
W -t * -x 600 -y 400
A -t * -n 1 -p 0 -o 0x7fffffff -c 30 -a 1
A -t * -h 1 -m 1073741823 -s 0
c -t * -i 1 -n Blue
c -t * -i 2 -n Red
n -t 0.000000 -s 0 -x 100.000000 -y 300.000000 -U 0.000000 -V 0.000000 -T 0.000000
n -t 0.000000 -s 1 -x 100.000000 -y 100.000000 -U 0.000000 -V 0.000000 -T 0.000000
n -t 0.000000 -s 2 -x 300.000000 -y 300.000000 -U 0.000000 -V 0.000000 -T 0.000000
n -t 0.000000 -s 3 -x 500.000000 -y 300.000000 -U 0.000000 -V 0.000000 -T 0.000000
n -t 0.000000 -s 4 -x 300.000000 -y 200.000000 -U 0.000000 -V 0.000000 -T 0.000000
n -t 0.000000 -s 5 -x 300.000000 -y 100.000000 -U 0.000000 -V 0.000000 -T 0.000000
n -t 0.000000 -s 6 -x 500.000000 -y 100.000000 -U 0.000000 -V 0.000000 -T 0.000000
n -t 0 -s 0 -S DLABEL -l "Source S1" -L ""
n -t 0 -s 1 -S DLABEL -l "Source S2" -L ""
n -t 0 -s 2 -S DLABEL -l "Gateway G1" -L ""
n -t 0 -s 3 -S DLABEL -l "Destination D1" -L ""
n -t 0 -s 4 -S DLABEL -l "Gateway G3" -L ""
n -t 0 -s 5 -S DLABEL -l "Gateway G2" -L ""
n -t 0 -s 6 -S DLABEL -l "Destination D2" -L ""
+ -t 0.179336133 -s 0 -d -1 -p message -e 32 -c 2 -a 0 -i 0 -k RTR 
- -t 0.179336133 -s 0 -d -1 -p message -e 32 -c 2 -a 0 -i 0 -k RTR
h -t 0.179336133 -s 0 -d -1 -p message -e 32 -c 2 -a 0 -i 0 -k RTR
+ -t 0.179451133 -s 0 -d -1 -p message -e 90 -c 2 -a 0 -i 0 -k MAC 
- -t 0.179451133 -s 0 -d -1 -p message -e 90 -c 2 -a 0 -i 0 -k MAC
h -t 0.179451133 -s 0 -d -1 -p message -e 90 -c 2 -a 0 -i 0 -k MAC
r -t 0.180171800 -s 1 -d -1 -p message -e 32 -c 2 -a 0 -i 0 -k MAC
r -t 0.180171800 -s 2 -d -1 -p message -e 32 -c 2 -a 0 -i 0 -k MAC
r -t 0.180171879 -s 4 -d -1 -p message -e 32 -c 2 -a 0 -i 0 -k MAC
r -t 0.180196800 -s 1 -d -1 -p message -e 32 -c 2 -a 0 -i 0 -k RTR
r -t 0.180196800 -s 2 -d -1 -p message -e 32 -c 2 -a 0 -i 0 -k RTR
r -t 0.180196879 -s 4 -d -1 -p message -e 32 -c 2 -a 0 -i 0 -k RTR
+ -t 0.475604180 -s 5 -d -1 -p message -e 32 -c 2 -a 0 -i 1 -k RTR 
- -t 0.475604180 -s 5 -d -1 -p message -e 32 -c 2 -a 0 -i 1 -k RTR
h -t 0.475604180 -s 5 -d -1 -p message -e 32 -c 2 -a 0 -i 1 -k RTR
+ -t 0.475919180 -s 5 -d -1 -p message -e 90 -c 2 -a 0 -i 1 -k MAC 
- -t 0.475919180 -s 5 -d -1 -p message -e 90 -c 2 -a 0 -i 1 -k MAC
h -t 0.475919180 -s 5 -d -1 -p message -e 90 -c 2 -a 0 -i 1 -k MAC
r -t 0.476639514 -s 4 -d -1 -p message -e 32 -c 2 -a 0 -i 1 -k MAC
r -t 0.476639847 -s 2 -d -1 -p message -e 32 -c 2 -a 0 -i 1 -k MAC
r -t 0.476639847 -s 1 -d -1 -p message -e 32 -c 2 -a 0 -i 1 -k MAC
r -t 0.476639847 -s 6 -d -1 -p message -e 32 -c 2 -a 0 -i 1 -k MAC
r -t 0.476664514 -s 4 -d -1 -p message -e 32 -c 2 -a 0 -i 1 -k RTR
r -t 0.476664847 -s 2 -d -1 -p message -e 32 -c 2 -a 0 -i 1 -k RTR
r -t 0.476664847 -s 1 -d -1 -p message -e 32 -c 2 -a 0 -i 1 -k RTR
r -t 0.476664847 -s 6 -d -1 -p message -e 32 -c 2 -a 0 -i 1 -k RTR
+ -t 0.627671596 -s 3 -d -1 -p message -e 32 -c 2 -a 0 -i 2 -k RTR 
- -t 0.627671596 -s 3 -d -1 -p message -e 32 -c 2 -a 0 -i 2 -k RTR
h -t 0.627671596 -s 3 -d -1 -p message -e 32 -c 2 -a 0 -i 2 -k RTR
+ -t 0.628066596 -s 3 -d -1 -p message -e 90 -c 2 -a 0 -i 2 -k MAC 
- -t 0.628066596 -s 3 -d -1 -p message -e 90 -c 2 -a 0 -i 2 -k MAC
h -t 0.628066596 -s 3 -d -1 -p message -e 90 -c 2 -a 0 -i 2 -k MAC
r -t 0.628787262 -s 2 -d -1 -p message -e 32 -c 2 -a 0 -i 2 -k MAC
r -t 0.628787262 -s 6 -d -1 -p message -e 32 -c 2 -a 0 -i 2 -k MAC
r -t 0.628787341 -s 4 -d -1 -p message -e 32 -c 2 -a 0 -i 2 -k MAC
r -t 0.628812262 -s 2 -d -1 -p message -e 32 -c 2 -a 0 -i 2 -k RTR
r -t 0.628812262 -s 6 -d -1 -p message -e 32 -c 2 -a 0 -i 2 -k RTR
r -t 0.628812341 -s 4 -d -1 -p message -e 32 -c 2 -a 0 -i 2 -k RTR
+ -t 0.884927644 -s 1 -d -1 -p message -e 32 -c 2 -a 0 -i 3 -k RTR 
- -t 0.884927644 -s 1 -d -1 -p message -e 32 -c 2 -a 0 -i 3 -k RTR
h -t 0.884927644 -s 1 -d -1 -p message -e 32 -c 2 -a 0 -i 3 -k RTR
+ -t 0.885242644 -s 1 -d -1 -p message -e 90 -c 2 -a 0 -i 3 -k MAC 
- -t 0.885242644 -s 1 -d -1 -p message -e 90 -c 2 -a 0 -i 3 -k MAC
h -t 0.885242644 -s 1 -d -1 -p message -e 90 -c 2 -a 0 -i 3 -k MAC
r -t 0.885963310 -s 0 -d -1 -p message -e 32 -c 2 -a 0 -i 3 -k MAC
r -t 0.885963310 -s 5 -d -1 -p message -e 32 -c 2 -a 0 -i 3 -k MAC
r -t 0.885963389 -s 4 -d -1 -p message -e 32 -c 2 -a 0 -i 3 -k MAC
r -t 0.885988310 -s 0 -d -1 -p message -e 32 -c 2 -a 0 -i 3 -k RTR
r -t 0.885988310 -s 5 -d -1 -p message -e 32 -c 2 -a 0 -i 3 -k RTR
r -t 0.885988389 -s 4 -d -1 -p message -e 32 -c 2 -a 0 -i 3 -k RTR
+ -t 1.284653355 -s 6 -d -1 -p message -e 32 -c 2 -a 0 -i 4 -k RTR 
- -t 1.284653355 -s 6 -d -1 -p message -e 32 -c 2 -a 0 -i 4 -k RTR
h -t 1.284653355 -s 6 -d -1 -p message -e 32 -c 2 -a 0 -i 4 -k RTR
+ -t 1.285128355 -s 6 -d -1 -p message -e 90 -c 2 -a 0 -i 4 -k MAC 
- -t 1.285128355 -s 6 -d -1 -p message -e 90 -c 2 -a 0 -i 4 -k MAC
h -t 1.285128355 -s 6 -d -1 -p message -e 90 -c 2 -a 0 -i 4 -k MAC
r -t 1.285849022 -s 3 -d -1 -p message -e 32 -c 2 -a 0 -i 4 -k MAC
r -t 1.285849022 -s 5 -d -1 -p message -e 32 -c 2 -a 0 -i 4 -k MAC
r -t 1.285849100 -s 4 -d -1 -p message -e 32 -c 2 -a 0 -i 4 -k MAC
r -t 1.285874022 -s 3 -d -1 -p message -e 32 -c 2 -a 0 -i 4 -k RTR
r -t 1.285874022 -s 5 -d -1 -p message -e 32 -c 2 -a 0 -i 4 -k RTR
r -t 1.285874100 -s 4 -d -1 -p message -e 32 -c 2 -a 0 -i 4 -k RTR
+ -t 1.600723163 -s 2 -d -1 -p message -e 32 -c 2 -a 0 -i 5 -k RTR 
- -t 1.600723163 -s 2 -d -1 -p message -e 32 -c 2 -a 0 -i 5 -k RTR
h -t 1.600723163 -s 2 -d -1 -p message -e 32 -c 2 -a 0 -i 5 -k RTR
+ -t 1.601098163 -s 2 -d -1 -p message -e 90 -c 2 -a 0 -i 5 -k MAC 
- -t 1.601098163 -s 2 -d -1 -p message -e 90 -c 2 -a 0 -i 5 -k MAC
h -t 1.601098163 -s 2 -d -1 -p message -e 90 -c 2 -a 0 -i 5 -k MAC
r -t 1.601818497 -s 4 -d -1 -p message -e 32 -c 2 -a 0 -i 5 -k MAC
r -t 1.601818830 -s 0 -d -1 -p message -e 32 -c 2 -a 0 -i 5 -k MAC
r -t 1.601818830 -s 5 -d -1 -p message -e 32 -c 2 -a 0 -i 5 -k MAC
r -t 1.601818830 -s 3 -d -1 -p message -e 32 -c 2 -a 0 -i 5 -k MAC
r -t 1.601843497 -s 4 -d -1 -p message -e 32 -c 2 -a 0 -i 5 -k RTR
r -t 1.601843830 -s 0 -d -1 -p message -e 32 -c 2 -a 0 -i 5 -k RTR
r -t 1.601843830 -s 5 -d -1 -p message -e 32 -c 2 -a 0 -i 5 -k RTR
r -t 1.601843830 -s 3 -d -1 -p message -e 32 -c 2 -a 0 -i 5 -k RTR
+ -t 1.642001558 -s 4 -d -1 -p message -e 32 -c 2 -a 0 -i 6 -k RTR 
- -t 1.642001558 -s 4 -d -1 -p message -e 32 -c 2 -a 0 -i 6 -k RTR
h -t 1.642001558 -s 4 -d -1 -p message -e 32 -c 2 -a 0 -i 6 -k RTR
+ -t 1.642356558 -s 4 -d -1 -p message -e 90 -c 2 -a 0 -i 6 -k MAC 
- -t 1.642356558 -s 4 -d -1 -p message -e 90 -c 2 -a 0 -i 6 -k MAC
h -t 1.642356558 -s 4 -d -1 -p message -e 90 -c 2 -a 0 -i 6 -k MAC
r -t 1.643076891 -s 2 -d -1 -p message -e 32 -c 2 -a 0 -i 6 -k MAC
r -t 1.643076891 -s 5 -d -1 -p message -e 32 -c 2 -a 0 -i 6 -k MAC
r -t 1.643077303 -s 1 -d -1 -p message -e 32 -c 2 -a 0 -i 6 -k MAC
r -t 1.643077303 -s 0 -d -1 -p message -e 32 -c 2 -a 0 -i 6 -k MAC
r -t 1.643077303 -s 3 -d -1 -p message -e 32 -c 2 -a 0 -i 6 -k MAC
r -t 1.643077303 -s 6 -d -1 -p message -e 32 -c 2 -a 0 -i 6 -k MAC
r -t 1.643101891 -s 2 -d -1 -p message -e 32 -c 2 -a 0 -i 6 -k RTR
r -t 1.643101891 -s 5 -d -1 -p message -e 32 -c 2 -a 0 -i 6 -k RTR
r -t 1.643102303 -s 1 -d -1 -p message -e 32 -c 2 -a 0 -i 6 -k RTR
r -t 1.643102303 -s 0 -d -1 -p message -e 32 -c 2 -a 0 -i 6 -k RTR
r -t 1.643102303 -s 3 -d -1 -p message -e 32 -c 2 -a 0 -i 6 -k RTR
r -t 1.643102303 -s 6 -d -1 -p message -e 32 -c 2 -a 0 -i 6 -k RTR
+ -t 3.000000000 -s 0 -d -1 -p tcp -e 40 -c 2 -a 0 -i 7 -k AGT 
- -t 3.000000000 -s 0 -d -1 -p tcp -e 40 -c 2 -a 0 -i 7 -k AGT
h -t 3.000000000 -s 0 -d -1 -p tcp -e 40 -c 2 -a 0 -i 7 -k AGT
+ -t 3.000000000 -s 1 -d -1 -p tcp -e 1000 -c 2 -a 0 -i 8 -k AGT 
- -t 3.000000000 -s 1 -d -1 -p tcp -e 1000 -c 2 -a 0 -i 8 -k AGT
h -t 3.000000000 -s 1 -d -1 -p tcp -e 1000 -c 2 -a 0 -i 8 -k AGT
+ -t 6.000000000 -s 0 -d -1 -p tcp -e 40 -c 2 -a 0 -i 9 -k AGT 
- -t 6.000000000 -s 0 -d -1 -p tcp -e 40 -c 2 -a 0 -i 9 -k AGT
h -t 6.000000000 -s 0 -d -1 -p tcp -e 40 -c 2 -a 0 -i 9 -k AGT
+ -t 6.000000000 -s 1 -d -1 -p tcp -e 1000 -c 2 -a 0 -i 10 -k AGT 
- -t 6.000000000 -s 1 -d -1 -p tcp -e 1000 -c 2 -a 0 -i 10 -k AGT
h -t 6.000000000 -s 1 -d -1 -p tcp -e 1000 -c 2 -a 0 -i 10 -k AGT
+ -t 6.000000000 -s 1 -d -1 -p tcp -e 1000 -c 2 -a 0 -i 11 -k AGT 
- -t 6.000000000 -s 1 -d -1 -p tcp -e 1000 -c 2 -a 0 -i 11 -k AGT
h -t 6.000000000 -s 1 -d -1 -p tcp -e 1000 -c 2 -a 0 -i 11 -k AGT
+ -t 12.000000000 -s 0 -d -1 -p tcp -e 40 -c 2 -a 0 -i 12 -k AGT 
- -t 12.000000000 -s 0 -d -1 -p tcp -e 40 -c 2 -a 0 -i 12 -k AGT
h -t 12.000000000 -s 0 -d -1 -p tcp -e 40 -c 2 -a 0 -i 12 -k AGT
+ -t 12.000000000 -s 1 -d -1 -p tcp -e 1000 -c 2 -a 0 -i 13 -k AGT 
- -t 12.000000000 -s 1 -d -1 -p tcp -e 1000 -c 2 -a 0 -i 13 -k AGT
h -t 12.000000000 -s 1 -d -1 -p tcp -e 1000 -c 2 -a 0 -i 13 -k AGT
+ -t 12.000000000 -s 1 -d -1 -p tcp -e 1000 -c 2 -a 0 -i 14 -k AGT 
- -t 12.000000000 -s 1 -d -1 -p tcp -e 1000 -c 2 -a 0 -i 14 -k AGT
h -t 12.000000000 -s 1 -d -1 -p tcp -e 1000 -c 2 -a 0 -i 14 -k AGT
+ -t 12.147858088 -s 5 -d -1 -p message -e 32 -c 2 -a 0 -i 15 -k RTR 
- -t 12.147858088 -s 5 -d -1 -p message -e 32 -c 2 -a 0 -i 15 -k RTR
h -t 12.147858088 -s 5 -d -1 -p message -e 32 -c 2 -a 0 -i 15 -k RTR
+ -t 12.148153088 -s 5 -d -1 -p message -e 90 -c 2 -a 0 -i 15 -k MAC 
- -t 12.148153088 -s 5 -d -1 -p message -e 90 -c 2 -a 0 -i 15 -k MAC
h -t 12.148153088 -s 5 -d -1 -p message -e 90 -c 2 -a 0 -i 15 -k MAC
r -t 12.148873422 -s 4 -d -1 -p message -e 32 -c 2 -a 0 -i 15 -k MAC
r -t 12.148873755 -s 2 -d -1 -p message -e 32 -c 2 -a 0 -i 15 -k MAC
r -t 12.148873755 -s 1 -d -1 -p message -e 32 -c 2 -a 0 -i 15 -k MAC
r -t 12.148873755 -s 6 -d -1 -p message -e 32 -c 2 -a 0 -i 15 -k MAC
r -t 12.148898422 -s 4 -d -1 -p message -e 32 -c 2 -a 0 -i 15 -k RTR
r -t 12.148898755 -s 2 -d -1 -p message -e 32 -c 2 -a 0 -i 15 -k RTR
r -t 12.148898755 -s 1 -d -1 -p message -e 32 -c 2 -a 0 -i 15 -k RTR
r -t 12.148898755 -s 6 -d -1 -p message -e 32 -c 2 -a 0 -i 15 -k RTR
+ -t 12.180304962 -s 4 -d -1 -p message -e 32 -c 2 -a 0 -i 18 -k RTR 
- -t 12.180304962 -s 4 -d -1 -p message -e 32 -c 2 -a 0 -i 18 -k RTR
h -t 12.180304962 -s 4 -d -1 -p message -e 32 -c 2 -a 0 -i 18 -k RTR
+ -t 12.180719962 -s 4 -d -1 -p message -e 90 -c 2 -a 0 -i 18 -k MAC 
- -t 12.180719962 -s 4 -d -1 -p message -e 90 -c 2 -a 0 -i 18 -k MAC
h -t 12.180719962 -s 4 -d -1 -p message -e 90 -c 2 -a 0 -i 18 -k MAC
+ -t 12.180780826 -s 2 -d -1 -p message -e 32 -c 2 -a 0 -i 17 -k RTR 
- -t 12.180780826 -s 2 -d -1 -p message -e 32 -c 2 -a 0 -i 17 -k RTR
h -t 12.180780826 -s 2 -d -1 -p message -e 32 -c 2 -a 0 -i 17 -k RTR
+ -t 12.181317113 -s 1 -d -1 -p message -e 32 -c 2 -a 0 -i 16 -k RTR 
- -t 12.181317113 -s 1 -d -1 -p message -e 32 -c 2 -a 0 -i 16 -k RTR
h -t 12.181317113 -s 1 -d -1 -p message -e 32 -c 2 -a 0 -i 16 -k RTR
r -t 12.181440295 -s 2 -d -1 -p message -e 32 -c 2 -a 0 -i 18 -k MAC
r -t 12.181440295 -s 5 -d -1 -p message -e 32 -c 2 -a 0 -i 18 -k MAC
r -t 12.181440707 -s 1 -d -1 -p message -e 32 -c 2 -a 0 -i 18 -k MAC
r -t 12.181440707 -s 0 -d -1 -p message -e 32 -c 2 -a 0 -i 18 -k MAC
r -t 12.181440707 -s 3 -d -1 -p message -e 32 -c 2 -a 0 -i 18 -k MAC
r -t 12.181440707 -s 6 -d -1 -p message -e 32 -c 2 -a 0 -i 18 -k MAC
r -t 12.181465295 -s 2 -d -1 -p message -e 32 -c 2 -a 0 -i 18 -k RTR
r -t 12.181465295 -s 5 -d -1 -p message -e 32 -c 2 -a 0 -i 18 -k RTR
r -t 12.181465707 -s 1 -d -1 -p message -e 32 -c 2 -a 0 -i 18 -k RTR
r -t 12.181465707 -s 0 -d -1 -p message -e 32 -c 2 -a 0 -i 18 -k RTR
r -t 12.181465707 -s 3 -d -1 -p message -e 32 -c 2 -a 0 -i 18 -k RTR
r -t 12.181465707 -s 6 -d -1 -p message -e 32 -c 2 -a 0 -i 18 -k RTR
+ -t 12.181770707 -s 1 -d -1 -p message -e 90 -c 2 -a 0 -i 16 -k MAC 
- -t 12.181770707 -s 1 -d -1 -p message -e 90 -c 2 -a 0 -i 16 -k MAC
h -t 12.181770707 -s 1 -d -1 -p message -e 90 -c 2 -a 0 -i 16 -k MAC
r -t 12.182491374 -s 0 -d -1 -p message -e 32 -c 2 -a 0 -i 16 -k MAC
r -t 12.182491374 -s 5 -d -1 -p message -e 32 -c 2 -a 0 -i 16 -k MAC
r -t 12.182491453 -s 4 -d -1 -p message -e 32 -c 2 -a 0 -i 16 -k MAC
r -t 12.182516374 -s 0 -d -1 -p message -e 32 -c 2 -a 0 -i 16 -k RTR
r -t 12.182516374 -s 5 -d -1 -p message -e 32 -c 2 -a 0 -i 16 -k RTR
r -t 12.182516453 -s 4 -d -1 -p message -e 32 -c 2 -a 0 -i 16 -k RTR
+ -t 12.183125650 -s 2 -d -1 -p message -e 90 -c 2 -a 0 -i 17 -k MAC 
- -t 12.183125650 -s 2 -d -1 -p message -e 90 -c 2 -a 0 -i 17 -k MAC
h -t 12.183125650 -s 2 -d -1 -p message -e 90 -c 2 -a 0 -i 17 -k MAC
r -t 12.183845983 -s 4 -d -1 -p message -e 32 -c 2 -a 0 -i 17 -k MAC
r -t 12.183846317 -s 0 -d -1 -p message -e 32 -c 2 -a 0 -i 17 -k MAC
r -t 12.183846317 -s 5 -d -1 -p message -e 32 -c 2 -a 0 -i 17 -k MAC
r -t 12.183846317 -s 3 -d -1 -p message -e 32 -c 2 -a 0 -i 17 -k MAC
r -t 12.183870983 -s 4 -d -1 -p message -e 32 -c 2 -a 0 -i 17 -k RTR
r -t 12.183871317 -s 0 -d -1 -p message -e 32 -c 2 -a 0 -i 17 -k RTR
r -t 12.183871317 -s 5 -d -1 -p message -e 32 -c 2 -a 0 -i 17 -k RTR
r -t 12.183871317 -s 3 -d -1 -p message -e 32 -c 2 -a 0 -i 17 -k RTR
+ -t 12.234392468 -s 3 -d -1 -p message -e 32 -c 2 -a 0 -i 19 -k RTR 
- -t 12.234392468 -s 3 -d -1 -p message -e 32 -c 2 -a 0 -i 19 -k RTR
h -t 12.234392468 -s 3 -d -1 -p message -e 32 -c 2 -a 0 -i 19 -k RTR
+ -t 12.234787468 -s 3 -d -1 -p message -e 90 -c 2 -a 0 -i 19 -k MAC 
- -t 12.234787468 -s 3 -d -1 -p message -e 90 -c 2 -a 0 -i 19 -k MAC
h -t 12.234787468 -s 3 -d -1 -p message -e 90 -c 2 -a 0 -i 19 -k MAC
r -t 12.235508134 -s 2 -d -1 -p message -e 32 -c 2 -a 0 -i 19 -k MAC
r -t 12.235508134 -s 6 -d -1 -p message -e 32 -c 2 -a 0 -i 19 -k MAC
r -t 12.235508213 -s 4 -d -1 -p message -e 32 -c 2 -a 0 -i 19 -k MAC
r -t 12.235533134 -s 2 -d -1 -p message -e 32 -c 2 -a 0 -i 19 -k RTR
r -t 12.235533134 -s 6 -d -1 -p message -e 32 -c 2 -a 0 -i 19 -k RTR
r -t 12.235533213 -s 4 -d -1 -p message -e 32 -c 2 -a 0 -i 19 -k RTR
+ -t 12.890245183 -s 0 -d -1 -p message -e 32 -c 2 -a 0 -i 22 -k RTR 
- -t 12.890245183 -s 0 -d -1 -p message -e 32 -c 2 -a 0 -i 22 -k RTR
h -t 12.890245183 -s 0 -d -1 -p message -e 32 -c 2 -a 0 -i 22 -k RTR
+ -t 12.890400183 -s 0 -d -1 -p message -e 90 -c 2 -a 0 -i 22 -k MAC 
- -t 12.890400183 -s 0 -d -1 -p message -e 90 -c 2 -a 0 -i 22 -k MAC
h -t 12.890400183 -s 0 -d -1 -p message -e 90 -c 2 -a 0 -i 22 -k MAC
r -t 12.891120850 -s 1 -d -1 -p message -e 32 -c 2 -a 0 -i 22 -k MAC
r -t 12.891120850 -s 2 -d -1 -p message -e 32 -c 2 -a 0 -i 22 -k MAC
r -t 12.891120928 -s 4 -d -1 -p message -e 32 -c 2 -a 0 -i 22 -k MAC
r -t 12.891145850 -s 1 -d -1 -p message -e 32 -c 2 -a 0 -i 22 -k RTR
r -t 12.891145850 -s 2 -d -1 -p message -e 32 -c 2 -a 0 -i 22 -k RTR
r -t 12.891145928 -s 4 -d -1 -p message -e 32 -c 2 -a 0 -i 22 -k RTR
+ -t 13.147846578 -s 5 -d -1 -p message -e 32 -c 2 -a 0 -i 23 -k RTR 
- -t 13.147846578 -s 5 -d -1 -p message -e 32 -c 2 -a 0 -i 23 -k RTR
h -t 13.147846578 -s 5 -d -1 -p message -e 32 -c 2 -a 0 -i 23 -k RTR
+ -t 13.148161578 -s 5 -d -1 -p message -e 90 -c 2 -a 0 -i 23 -k MAC 
- -t 13.148161578 -s 5 -d -1 -p message -e 90 -c 2 -a 0 -i 23 -k MAC
h -t 13.148161578 -s 5 -d -1 -p message -e 90 -c 2 -a 0 -i 23 -k MAC
r -t 13.148881912 -s 4 -d -1 -p message -e 32 -c 2 -a 0 -i 23 -k MAC
r -t 13.148882245 -s 2 -d -1 -p message -e 32 -c 2 -a 0 -i 23 -k MAC
r -t 13.148882245 -s 1 -d -1 -p message -e 32 -c 2 -a 0 -i 23 -k MAC
r -t 13.148882245 -s 6 -d -1 -p message -e 32 -c 2 -a 0 -i 23 -k MAC
r -t 13.148906912 -s 4 -d -1 -p message -e 32 -c 2 -a 0 -i 23 -k RTR
r -t 13.148907245 -s 2 -d -1 -p message -e 32 -c 2 -a 0 -i 23 -k RTR
r -t 13.148907245 -s 1 -d -1 -p message -e 32 -c 2 -a 0 -i 23 -k RTR
r -t 13.148907245 -s 6 -d -1 -p message -e 32 -c 2 -a 0 -i 23 -k RTR
+ -t 13.182264140 -s 1 -d -1 -p message -e 32 -c 2 -a 0 -i 25 -k RTR 
- -t 13.182264140 -s 1 -d -1 -p message -e 32 -c 2 -a 0 -i 25 -k RTR
h -t 13.182264140 -s 1 -d -1 -p message -e 32 -c 2 -a 0 -i 25 -k RTR
+ -t 13.182579140 -s 1 -d -1 -p message -e 90 -c 2 -a 0 -i 25 -k MAC 
- -t 13.182579140 -s 1 -d -1 -p message -e 90 -c 2 -a 0 -i 25 -k MAC
h -t 13.182579140 -s 1 -d -1 -p message -e 90 -c 2 -a 0 -i 25 -k MAC
r -t 13.183299807 -s 0 -d -1 -p message -e 32 -c 2 -a 0 -i 25 -k MAC
r -t 13.183299807 -s 5 -d -1 -p message -e 32 -c 2 -a 0 -i 25 -k MAC
r -t 13.183299886 -s 4 -d -1 -p message -e 32 -c 2 -a 0 -i 25 -k MAC
r -t 13.183324807 -s 0 -d -1 -p message -e 32 -c 2 -a 0 -i 25 -k RTR
r -t 13.183324807 -s 5 -d -1 -p message -e 32 -c 2 -a 0 -i 25 -k RTR
r -t 13.183324886 -s 4 -d -1 -p message -e 32 -c 2 -a 0 -i 25 -k RTR
+ -t 13.187146251 -s 4 -d -1 -p message -e 44 -c 2 -a 0 -i 26 -k RTR 
- -t 13.187146251 -s 4 -d -1 -p message -e 44 -c 2 -a 0 -i 26 -k RTR
h -t 13.187146251 -s 4 -d -1 -p message -e 44 -c 2 -a 0 -i 26 -k RTR
+ -t 13.187521251 -s 4 -d -1 -p message -e 102 -c 2 -a 0 -i 26 -k MAC 
- -t 13.187521251 -s 4 -d -1 -p message -e 102 -c 2 -a 0 -i 26 -k MAC
h -t 13.187521251 -s 4 -d -1 -p message -e 102 -c 2 -a 0 -i 26 -k MAC
+ -t 13.187923757 -s 2 -d -1 -p message -e 32 -c 2 -a 0 -i 24 -k RTR 
- -t 13.187923757 -s 2 -d -1 -p message -e 32 -c 2 -a 0 -i 24 -k RTR
h -t 13.187923757 -s 2 -d -1 -p message -e 32 -c 2 -a 0 -i 24 -k RTR
r -t 13.188337585 -s 2 -d -1 -p message -e 44 -c 2 -a 0 -i 26 -k MAC
r -t 13.188337585 -s 5 -d -1 -p message -e 44 -c 2 -a 0 -i 26 -k MAC
r -t 13.188337997 -s 1 -d -1 -p message -e 44 -c 2 -a 0 -i 26 -k MAC
r -t 13.188337997 -s 0 -d -1 -p message -e 44 -c 2 -a 0 -i 26 -k MAC
r -t 13.188337997 -s 3 -d -1 -p message -e 44 -c 2 -a 0 -i 26 -k MAC
r -t 13.188337997 -s 6 -d -1 -p message -e 44 -c 2 -a 0 -i 26 -k MAC
r -t 13.188362585 -s 2 -d -1 -p message -e 44 -c 2 -a 0 -i 26 -k RTR
r -t 13.188362585 -s 5 -d -1 -p message -e 44 -c 2 -a 0 -i 26 -k RTR
r -t 13.188362997 -s 1 -d -1 -p message -e 44 -c 2 -a 0 -i 26 -k RTR
r -t 13.188362997 -s 0 -d -1 -p message -e 44 -c 2 -a 0 -i 26 -k RTR
r -t 13.188362997 -s 3 -d -1 -p message -e 44 -c 2 -a 0 -i 26 -k RTR
r -t 13.188362997 -s 6 -d -1 -p message -e 44 -c 2 -a 0 -i 26 -k RTR
+ -t 13.188427585 -s 2 -d -1 -p message -e 90 -c 2 -a 0 -i 24 -k MAC 
- -t 13.188427585 -s 2 -d -1 -p message -e 90 -c 2 -a 0 -i 24 -k MAC
h -t 13.188427585 -s 2 -d -1 -p message -e 90 -c 2 -a 0 -i 24 -k MAC
r -t 13.189147918 -s 4 -d -1 -p message -e 32 -c 2 -a 0 -i 24 -k MAC
r -t 13.189148251 -s 0 -d -1 -p message -e 32 -c 2 -a 0 -i 24 -k MAC
r -t 13.189148251 -s 5 -d -1 -p message -e 32 -c 2 -a 0 -i 24 -k MAC
r -t 13.189148251 -s 3 -d -1 -p message -e 32 -c 2 -a 0 -i 24 -k MAC
r -t 13.189172918 -s 4 -d -1 -p message -e 32 -c 2 -a 0 -i 24 -k RTR
r -t 13.189173251 -s 0 -d -1 -p message -e 32 -c 2 -a 0 -i 24 -k RTR
r -t 13.189173251 -s 5 -d -1 -p message -e 32 -c 2 -a 0 -i 24 -k RTR
r -t 13.189173251 -s 3 -d -1 -p message -e 32 -c 2 -a 0 -i 24 -k RTR
+ -t 13.291203007 -s 3 -d -1 -p message -e 32 -c 2 -a 0 -i 27 -k RTR 
- -t 13.291203007 -s 3 -d -1 -p message -e 32 -c 2 -a 0 -i 27 -k RTR
h -t 13.291203007 -s 3 -d -1 -p message -e 32 -c 2 -a 0 -i 27 -k RTR
+ -t 13.291378007 -s 3 -d -1 -p message -e 90 -c 2 -a 0 -i 27 -k MAC 
- -t 13.291378007 -s 3 -d -1 -p message -e 90 -c 2 -a 0 -i 27 -k MAC
h -t 13.291378007 -s 3 -d -1 -p message -e 90 -c 2 -a 0 -i 27 -k MAC
r -t 13.292098674 -s 2 -d -1 -p message -e 32 -c 2 -a 0 -i 27 -k MAC
r -t 13.292098674 -s 6 -d -1 -p message -e 32 -c 2 -a 0 -i 27 -k MAC
r -t 13.292098752 -s 4 -d -1 -p message -e 32 -c 2 -a 0 -i 27 -k MAC
r -t 13.292123674 -s 2 -d -1 -p message -e 32 -c 2 -a 0 -i 27 -k RTR
r -t 13.292123674 -s 6 -d -1 -p message -e 32 -c 2 -a 0 -i 27 -k RTR
r -t 13.292123752 -s 4 -d -1 -p message -e 32 -c 2 -a 0 -i 27 -k RTR
+ -t 13.643984304 -s 6 -d -1 -p message -e 32 -c 2 -a 0 -i 28 -k RTR 
- -t 13.643984304 -s 6 -d -1 -p message -e 32 -c 2 -a 0 -i 28 -k RTR
h -t 13.643984304 -s 6 -d -1 -p message -e 32 -c 2 -a 0 -i 28 -k RTR
+ -t 13.644259304 -s 6 -d -1 -p message -e 90 -c 2 -a 0 -i 28 -k MAC 
- -t 13.644259304 -s 6 -d -1 -p message -e 90 -c 2 -a 0 -i 28 -k MAC
h -t 13.644259304 -s 6 -d -1 -p message -e 90 -c 2 -a 0 -i 28 -k MAC
r -t 13.644979971 -s 3 -d -1 -p message -e 32 -c 2 -a 0 -i 28 -k MAC
r -t 13.644979971 -s 5 -d -1 -p message -e 32 -c 2 -a 0 -i 28 -k MAC
r -t 13.644980050 -s 4 -d -1 -p message -e 32 -c 2 -a 0 -i 28 -k MAC
r -t 13.645004971 -s 3 -d -1 -p message -e 32 -c 2 -a 0 -i 28 -k RTR
r -t 13.645004971 -s 5 -d -1 -p message -e 32 -c 2 -a 0 -i 28 -k RTR
r -t 13.645005050 -s 4 -d -1 -p message -e 32 -c 2 -a 0 -i 28 -k RTR
+ -t 13.672198467 -s 1 -d -1 -p message -e 56 -c 2 -a 0 -i 29 -k RTR 
- -t 13.672198467 -s 1 -d -1 -p message -e 56 -c 2 -a 0 -i 29 -k RTR
h -t 13.672198467 -s 1 -d -1 -p message -e 56 -c 2 -a 0 -i 29 -k RTR
+ -t 13.672393467 -s 1 -d -1 -p message -e 114 -c 2 -a 0 -i 29 -k MAC 
- -t 13.672393467 -s 1 -d -1 -p message -e 114 -c 2 -a 0 -i 29 -k MAC
h -t 13.672393467 -s 1 -d -1 -p message -e 114 -c 2 -a 0 -i 29 -k MAC
r -t 13.673306134 -s 0 -d -1 -p message -e 56 -c 2 -a 0 -i 29 -k MAC
r -t 13.673306134 -s 5 -d -1 -p message -e 56 -c 2 -a 0 -i 29 -k MAC
r -t 13.673306212 -s 4 -d -1 -p message -e 56 -c 2 -a 0 -i 29 -k MAC
r -t 13.673331134 -s 0 -d -1 -p message -e 56 -c 2 -a 0 -i 29 -k RTR
r -t 13.673331134 -s 5 -d -1 -p message -e 56 -c 2 -a 0 -i 29 -k RTR
r -t 13.673331212 -s 4 -d -1 -p message -e 56 -c 2 -a 0 -i 29 -k RTR
+ -t 13.894008429 -s 0 -d -1 -p message -e 44 -c 2 -a 0 -i 30 -k RTR 
- -t 13.894008429 -s 0 -d -1 -p message -e 44 -c 2 -a 0 -i 30 -k RTR
h -t 13.894008429 -s 0 -d -1 -p message -e 44 -c 2 -a 0 -i 30 -k RTR
+ -t 13.894203429 -s 0 -d -1 -p message -e 102 -c 2 -a 0 -i 30 -k MAC 
- -t 13.894203429 -s 0 -d -1 -p message -e 102 -c 2 -a 0 -i 30 -k MAC
h -t 13.894203429 -s 0 -d -1 -p message -e 102 -c 2 -a 0 -i 30 -k MAC
r -t 13.895020096 -s 1 -d -1 -p message -e 44 -c 2 -a 0 -i 30 -k MAC
r -t 13.895020096 -s 2 -d -1 -p message -e 44 -c 2 -a 0 -i 30 -k MAC
r -t 13.895020174 -s 4 -d -1 -p message -e 44 -c 2 -a 0 -i 30 -k MAC
r -t 13.895045096 -s 1 -d -1 -p message -e 44 -c 2 -a 0 -i 30 -k RTR
r -t 13.895045096 -s 2 -d -1 -p message -e 44 -c 2 -a 0 -i 30 -k RTR
r -t 13.895045174 -s 4 -d -1 -p message -e 44 -c 2 -a 0 -i 30 -k RTR
+ -t 14.154140259 -s 5 -d -1 -p message -e 56 -c 2 -a 0 -i 31 -k RTR 
- -t 14.154140259 -s 5 -d -1 -p message -e 56 -c 2 -a 0 -i 31 -k RTR
h -t 14.154140259 -s 5 -d -1 -p message -e 56 -c 2 -a 0 -i 31 -k RTR
+ -t 14.154755259 -s 5 -d -1 -p message -e 114 -c 2 -a 0 -i 31 -k MAC 
- -t 14.154755259 -s 5 -d -1 -p message -e 114 -c 2 -a 0 -i 31 -k MAC
h -t 14.154755259 -s 5 -d -1 -p message -e 114 -c 2 -a 0 -i 31 -k MAC
r -t 14.155667593 -s 4 -d -1 -p message -e 56 -c 2 -a 0 -i 31 -k MAC
r -t 14.155667926 -s 2 -d -1 -p message -e 56 -c 2 -a 0 -i 31 -k MAC
r -t 14.155667926 -s 1 -d -1 -p message -e 56 -c 2 -a 0 -i 31 -k MAC
r -t 14.155667926 -s 6 -d -1 -p message -e 56 -c 2 -a 0 -i 31 -k MAC
r -t 14.155692593 -s 4 -d -1 -p message -e 56 -c 2 -a 0 -i 31 -k RTR
r -t 14.155692926 -s 2 -d -1 -p message -e 56 -c 2 -a 0 -i 31 -k RTR
r -t 14.155692926 -s 1 -d -1 -p message -e 56 -c 2 -a 0 -i 31 -k RTR
+ -t 14.155692926 -s 1 -d 5 -p tcp -e 1040 -c 2 -a 0 -i 8 -k RTR 
- -t 14.155692926 -s 1 -d 5 -p tcp -e 1040 -c 2 -a 0 -i 8 -k RTR
h -t 14.155692926 -s 1 -d 5 -p tcp -e 1040 -c 2 -a 0 -i 8 -k RTR
+ -t 14.155692926 -s 1 -d 5 -p tcp -e 1040 -c 2 -a 0 -i 10 -k RTR 
- -t 14.155692926 -s 1 -d 5 -p tcp -e 1040 -c 2 -a 0 -i 10 -k RTR
h -t 14.155692926 -s 1 -d 5 -p tcp -e 1040 -c 2 -a 0 -i 10 -k RTR
d -t 14.155692926 -s 1 -d 5 -p tcp -e 1040 -c 2 -a 0 -i 8 -k IFQ
+ -t 14.155692926 -s 1 -d 5 -p tcp -e 1040 -c 2 -a 0 -i 11 -k RTR 
- -t 14.155692926 -s 1 -d 5 -p tcp -e 1040 -c 2 -a 0 -i 11 -k RTR
h -t 14.155692926 -s 1 -d 5 -p tcp -e 1040 -c 2 -a 0 -i 11 -k RTR
d -t 14.155692926 -s 1 -d 5 -p tcp -e 1040 -c 2 -a 0 -i 10 -k IFQ
+ -t 14.155692926 -s 1 -d 5 -p tcp -e 1040 -c 2 -a 0 -i 13 -k RTR 
- -t 14.155692926 -s 1 -d 5 -p tcp -e 1040 -c 2 -a 0 -i 13 -k RTR
h -t 14.155692926 -s 1 -d 5 -p tcp -e 1040 -c 2 -a 0 -i 13 -k RTR
d -t 14.155692926 -s 1 -d 5 -p tcp -e 1040 -c 2 -a 0 -i 11 -k RTR
d -t 14.155692926 -s 1 -d 5 -p tcp -e 1040 -c 2 -a 0 -i 13 -k RTR
+ -t 14.155692926 -s 1 -d 5 -p tcp -e 1040 -c 2 -a 0 -i 14 -k RTR 
- -t 14.155692926 -s 1 -d 5 -p tcp -e 1040 -c 2 -a 0 -i 14 -k RTR
h -t 14.155692926 -s 1 -d 5 -p tcp -e 1040 -c 2 -a 0 -i 14 -k RTR
r -t 14.155692926 -s 6 -d -1 -p message -e 56 -c 2 -a 0 -i 31 -k RTR
+ -t 14.156047926 -s 1 -d -1 -p ARP -e 86 -c 2 -a 0 -i 0 -k MAC 
- -t 14.156047926 -s 1 -d -1 -p ARP -e 86 -c 2 -a 0 -i 0 -k MAC
h -t 14.156047926 -s 1 -d -1 -p ARP -e 86 -c 2 -a 0 -i 0 -k MAC
r -t 14.156736593 -s 0 -d -1 -p ARP -e 28 -c 2 -a 0 -i 0 -k MAC
r -t 14.156736593 -s 5 -d -1 -p ARP -e 28 -c 2 -a 0 -i 0 -k MAC
r -t 14.156736671 -s 4 -d -1 -p ARP -e 28 -c 2 -a 0 -i 0 -k MAC
+ -t 14.157085926 -s 1 -d -1 -p ARP -e 86 -c 2 -a 0 -i 0 -k MAC 
- -t 14.157085926 -s 1 -d -1 -p ARP -e 86 -c 2 -a 0 -i 0 -k MAC
h -t 14.157085926 -s 1 -d -1 -p ARP -e 86 -c 2 -a 0 -i 0 -k MAC
r -t 14.157774593 -s 0 -d -1 -p ARP -e 28 -c 2 -a 0 -i 0 -k MAC
r -t 14.157774593 -s 5 -d -1 -p ARP -e 28 -c 2 -a 0 -i 0 -k MAC
r -t 14.157774671 -s 4 -d -1 -p ARP -e 28 -c 2 -a 0 -i 0 -k MAC
+ -t 14.157863926 -s 1 -d -1 -p ARP -e 86 -c 2 -a 0 -i 0 -k MAC 
- -t 14.157863926 -s 1 -d -1 -p ARP -e 86 -c 2 -a 0 -i 0 -k MAC
h -t 14.157863926 -s 1 -d -1 -p ARP -e 86 -c 2 -a 0 -i 0 -k MAC
r -t 14.158552593 -s 0 -d -1 -p ARP -e 28 -c 2 -a 0 -i 0 -k MAC
r -t 14.158552593 -s 5 -d -1 -p ARP -e 28 -c 2 -a 0 -i 0 -k MAC
r -t 14.158552671 -s 4 -d -1 -p ARP -e 28 -c 2 -a 0 -i 0 -k MAC
+ -t 14.158622593 -s 5 -d -1 -p RTS -e 44 -c 2 -a 0 -i 0 -k MAC 
- -t 14.158622593 -s 5 -d -1 -p RTS -e 44 -c 2 -a 0 -i 0 -k MAC
h -t 14.158622593 -s 5 -d -1 -p RTS -e 44 -c 2 -a 0 -i 0 -k MAC
r -t 14.158975259 -s 1 -d -1 -p RTS -e 44 -c 2 -a 0 -i 0 -k MAC
+ -t 14.158985259 -s 1 -d -1 -p CTS -e 38 -c 2 -a 0 -i 0 -k MAC 
- -t 14.158985259 -s 1 -d -1 -p CTS -e 38 -c 2 -a 0 -i 0 -k MAC
h -t 14.158985259 -s 1 -d -1 -p CTS -e 38 -c 2 -a 0 -i 0 -k MAC
r -t 14.159289926 -s 5 -d -1 -p CTS -e 38 -c 2 -a 0 -i 0 -k MAC
+ -t 14.159299926 -s 5 -d -1 -p ARP -e 86 -c 2 -a 0 -i 0 -k MAC 
- -t 14.159299926 -s 5 -d -1 -p ARP -e 86 -c 2 -a 0 -i 0 -k MAC
h -t 14.159299926 -s 5 -d -1 -p ARP -e 86 -c 2 -a 0 -i 0 -k MAC
r -t 14.159988593 -s 1 -d -1 -p ARP -e 28 -c 2 -a 0 -i 0 -k MAC
+ -t 14.159998593 -s 1 -d -1 -p ACK -e 38 -c 2 -a 0 -i 0 -k MAC 
- -t 14.159998593 -s 1 -d -1 -p ACK -e 38 -c 2 -a 0 -i 0 -k MAC
h -t 14.159998593 -s 1 -d -1 -p ACK -e 38 -c 2 -a 0 -i 0 -k MAC
r -t 14.160303259 -s 5 -d -1 -p ACK -e 38 -c 2 -a 0 -i 0 -k MAC
+ -t 14.160573259 -s 5 -d -1 -p RTS -e 44 -c 2 -a 0 -i 0 -k MAC 
- -t 14.160573259 -s 5 -d -1 -p RTS -e 44 -c 2 -a 0 -i 0 -k MAC
h -t 14.160573259 -s 5 -d -1 -p RTS -e 44 -c 2 -a 0 -i 0 -k MAC
r -t 14.160925926 -s 1 -d -1 -p RTS -e 44 -c 2 -a 0 -i 0 -k MAC
+ -t 14.160935926 -s 1 -d -1 -p CTS -e 38 -c 2 -a 0 -i 0 -k MAC 
- -t 14.160935926 -s 1 -d -1 -p CTS -e 38 -c 2 -a 0 -i 0 -k MAC
h -t 14.160935926 -s 1 -d -1 -p CTS -e 38 -c 2 -a 0 -i 0 -k MAC
r -t 14.161240593 -s 5 -d -1 -p CTS -e 38 -c 2 -a 0 -i 0 -k MAC
+ -t 14.161250593 -s 5 -d -1 -p ARP -e 86 -c 2 -a 0 -i 0 -k MAC 
- -t 14.161250593 -s 5 -d -1 -p ARP -e 86 -c 2 -a 0 -i 0 -k MAC
h -t 14.161250593 -s 5 -d -1 -p ARP -e 86 -c 2 -a 0 -i 0 -k MAC
r -t 14.161939259 -s 1 -d -1 -p ARP -e 28 -c 2 -a 0 -i 0 -k MAC
+ -t 14.161949259 -s 1 -d -1 -p ACK -e 38 -c 2 -a 0 -i 0 -k MAC 
- -t 14.161949259 -s 1 -d -1 -p ACK -e 38 -c 2 -a 0 -i 0 -k MAC
h -t 14.161949259 -s 1 -d -1 -p ACK -e 38 -c 2 -a 0 -i 0 -k MAC
r -t 14.162253926 -s 5 -d -1 -p ACK -e 38 -c 2 -a 0 -i 0 -k MAC
+ -t 14.162483926 -s 5 -d -1 -p RTS -e 44 -c 2 -a 0 -i 0 -k MAC 
- -t 14.162483926 -s 5 -d -1 -p RTS -e 44 -c 2 -a 0 -i 0 -k MAC
h -t 14.162483926 -s 5 -d -1 -p RTS -e 44 -c 2 -a 0 -i 0 -k MAC
r -t 14.162836593 -s 1 -d -1 -p RTS -e 44 -c 2 -a 0 -i 0 -k MAC
+ -t 14.162846593 -s 1 -d -1 -p CTS -e 38 -c 2 -a 0 -i 0 -k MAC 
- -t 14.162846593 -s 1 -d -1 -p CTS -e 38 -c 2 -a 0 -i 0 -k MAC
h -t 14.162846593 -s 1 -d -1 -p CTS -e 38 -c 2 -a 0 -i 0 -k MAC
r -t 14.163151259 -s 5 -d -1 -p CTS -e 38 -c 2 -a 0 -i 0 -k MAC
+ -t 14.163161259 -s 5 -d -1 -p ARP -e 86 -c 2 -a 0 -i 0 -k MAC 
- -t 14.163161259 -s 5 -d -1 -p ARP -e 86 -c 2 -a 0 -i 0 -k MAC
h -t 14.163161259 -s 5 -d -1 -p ARP -e 86 -c 2 -a 0 -i 0 -k MAC
r -t 14.163849926 -s 1 -d -1 -p ARP -e 28 -c 2 -a 0 -i 0 -k MAC
+ -t 14.163859926 -s 1 -d -1 -p ACK -e 38 -c 2 -a 0 -i 0 -k MAC 
- -t 14.163859926 -s 1 -d -1 -p ACK -e 38 -c 2 -a 0 -i 0 -k MAC
h -t 14.163859926 -s 1 -d -1 -p ACK -e 38 -c 2 -a 0 -i 0 -k MAC
r -t 14.164164593 -s 5 -d -1 -p ACK -e 38 -c 2 -a 0 -i 0 -k MAC
+ -t 14.164373926 -s 1 -d -1 -p ARP -e 86 -c 2 -a 0 -i 0 -k MAC 
- -t 14.164373926 -s 1 -d -1 -p ARP -e 86 -c 2 -a 0 -i 0 -k MAC
h -t 14.164373926 -s 1 -d -1 -p ARP -e 86 -c 2 -a 0 -i 0 -k MAC
r -t 14.165062593 -s 0 -d -1 -p ARP -e 28 -c 2 -a 0 -i 0 -k MAC
r -t 14.165062593 -s 5 -d -1 -p ARP -e 28 -c 2 -a 0 -i 0 -k MAC
r -t 14.165062671 -s 4 -d -1 -p ARP -e 28 -c 2 -a 0 -i 0 -k MAC
+ -t 14.165517593 -s 5 -d -1 -p RTS -e 44 -c 2 -a 0 -i 0 -k MAC 
- -t 14.165517593 -s 5 -d -1 -p RTS -e 44 -c 2 -a 0 -i 0 -k MAC
h -t 14.165517593 -s 5 -d -1 -p RTS -e 44 -c 2 -a 0 -i 0 -k MAC
r -t 14.165870259 -s 1 -d -1 -p RTS -e 44 -c 2 -a 0 -i 0 -k MAC
+ -t 14.165880259 -s 1 -d -1 -p CTS -e 38 -c 2 -a 0 -i 0 -k MAC 
- -t 14.165880259 -s 1 -d -1 -p CTS -e 38 -c 2 -a 0 -i 0 -k MAC
h -t 14.165880259 -s 1 -d -1 -p CTS -e 38 -c 2 -a 0 -i 0 -k MAC
r -t 14.166184926 -s 5 -d -1 -p CTS -e 38 -c 2 -a 0 -i 0 -k MAC
+ -t 14.166194926 -s 5 -d -1 -p ARP -e 86 -c 2 -a 0 -i 0 -k MAC 
- -t 14.166194926 -s 5 -d -1 -p ARP -e 86 -c 2 -a 0 -i 0 -k MAC
h -t 14.166194926 -s 5 -d -1 -p ARP -e 86 -c 2 -a 0 -i 0 -k MAC
r -t 14.166883593 -s 1 -d -1 -p ARP -e 28 -c 2 -a 0 -i 0 -k MAC