M 0.00000 0 (100.00, 300.00, 0.00), (100.00, 300.00), 0.00
M 0.00000 1 (100.00, 100.00, 0.00), (100.00, 100.00), 0.00
M 0.00000 2 (300.00, 300.00, 0.00), (300.00, 300.00), 0.00
M 0.00000 3 (500.00, 300.00, 0.00), (500.00, 300.00), 0.00
M 0.00000 4 (300.00, 200.00, 0.00), (300.00, 200.00), 0.00
M 0.00000 5 (300.00, 100.00, 0.00), (300.00, 100.00), 0.00
M 0.00000 6 (500.00, 100.00, 0.00), (500.00, 100.00), 0.00
s 0.179336133 _0_ RTR  --- 0 message 32 [0 0 0 0] ------- [0:255 -1:255 32 0] 
s 0.179451133 _0_ MAC  --- 0 message 90 [0 ffffffff 0 800] ------- [0:255 -1:255 32 0] 
r 0.180171800 _1_ MAC  --- 0 message 32 [0 ffffffff 0 800] ------- [0:255 -1:255 32 0] 
r 0.180171800 _2_ MAC  --- 0 message 32 [0 ffffffff 0 800] ------- [0:255 -1:255 32 0] 
r 0.180171879 _4_ MAC  --- 0 message 32 [0 ffffffff 0 800] ------- [0:255 -1:255 32 0] 
r 0.180196800 _1_ RTR  --- 0 message 32 [0 ffffffff 0 800] ------- [0:255 -1:255 32 0] 
r 0.180196800 _2_ RTR  --- 0 message 32 [0 ffffffff 0 800] ------- [0:255 -1:255 32 0] 
r 0.180196879 _4_ RTR  --- 0 message 32 [0 ffffffff 0 800] ------- [0:255 -1:255 32 0] 
s 0.475604180 _5_ RTR  --- 1 message 32 [0 0 0 0] ------- [5:255 -1:255 32 0] 
s 0.475919180 _5_ MAC  --- 1 message 90 [0 ffffffff 5 800] ------- [5:255 -1:255 32 0] 
r 0.476639514 _4_ MAC  --- 1 message 32 [0 ffffffff 5 800] ------- [5:255 -1:255 32 0] 
r 0.476639847 _2_ MAC  --- 1 message 32 [0 ffffffff 5 800] ------- [5:255 -1:255 32 0] 
r 0.476639847 _1_ MAC  --- 1 message 32 [0 ffffffff 5 800] ------- [5:255 -1:255 32 0] 
r 0.476639847 _6_ MAC  --- 1 message 32 [0 ffffffff 5 800] ------- [5:255 -1:255 32 0] 
r 0.476664514 _4_ RTR  --- 1 message 32 [0 ffffffff 5 800] ------- [5:255 -1:255 32 0] 
r 0.476664847 _2_ RTR  --- 1 message 32 [0 ffffffff 5 800] ------- [5:255 -1:255 32 0] 
r 0.476664847 _1_ RTR  --- 1 message 32 [0 ffffffff 5 800] ------- [5:255 -1:255 32 0] 
r 0.476664847 _6_ RTR  --- 1 message 32 [0 ffffffff 5 800] ------- [5:255 -1:255 32 0] 
s 0.627671596 _3_ RTR  --- 2 message 32 [0 0 0 0] ------- [3:255 -1:255 32 0] 
s 0.628066596 _3_ MAC  --- 2 message 90 [0 ffffffff 3 800] ------- [3:255 -1:255 32 0] 
r 0.628787262 _2_ MAC  --- 2 message 32 [0 ffffffff 3 800] ------- [3:255 -1:255 32 0] 
r 0.628787262 _6_ MAC  --- 2 message 32 [0 ffffffff 3 800] ------- [3:255 -1:255 32 0] 
r 0.628787341 _4_ MAC  --- 2 message 32 [0 ffffffff 3 800] ------- [3:255 -1:255 32 0] 
r 0.628812262 _2_ RTR  --- 2 message 32 [0 ffffffff 3 800] ------- [3:255 -1:255 32 0] 
r 0.628812262 _6_ RTR  --- 2 message 32 [0 ffffffff 3 800] ------- [3:255 -1:255 32 0] 
r 0.628812341 _4_ RTR  --- 2 message 32 [0 ffffffff 3 800] ------- [3:255 -1:255 32 0] 
s 0.884927644 _1_ RTR  --- 3 message 32 [0 0 0 0] ------- [1:255 -1:255 32 0] 
s 0.885242644 _1_ MAC  --- 3 message 90 [0 ffffffff 1 800] ------- [1:255 -1:255 32 0] 
r 0.885963310 _0_ MAC  --- 3 message 32 [0 ffffffff 1 800] ------- [1:255 -1:255 32 0] 
r 0.885963310 _5_ MAC  --- 3 message 32 [0 ffffffff 1 800] ------- [1:255 -1:255 32 0] 
r 0.885963389 _4_ MAC  --- 3 message 32 [0 ffffffff 1 800] ------- [1:255 -1:255 32 0] 
r 0.885988310 _0_ RTR  --- 3 message 32 [0 ffffffff 1 800] ------- [1:255 -1:255 32 0] 
r 0.885988310 _5_ RTR  --- 3 message 32 [0 ffffffff 1 800] ------- [1:255 -1:255 32 0] 
r 0.885988389 _4_ RTR  --- 3 message 32 [0 ffffffff 1 800] ------- [1:255 -1:255 32 0] 
s 1.284653355 _6_ RTR  --- 4 message 32 [0 0 0 0] ------- [6:255 -1:255 32 0] 
s 1.285128355 _6_ MAC  --- 4 message 90 [0 ffffffff 6 800] ------- [6:255 -1:255 32 0] 
r 1.285849022 _3_ MAC  --- 4 message 32 [0 ffffffff 6 800] ------- [6:255 -1:255 32 0] 
r 1.285849022 _5_ MAC  --- 4 message 32 [0 ffffffff 6 800] ------- [6:255 -1:255 32 0] 
r 1.285849100 _4_ MAC  --- 4 message 32 [0 ffffffff 6 800] ------- [6:255 -1:255 32 0] 
r 1.285874022 _3_ RTR  --- 4 message 32 [0 ffffffff 6 800] ------- [6:255 -1:255 32 0] 
r 1.285874022 _5_ RTR  --- 4 message 32 [0 ffffffff 6 800] ------- [6:255 -1:255 32 0] 
r 1.285874100 _4_ RTR  --- 4 message 32 [0 ffffffff 6 800] ------- [6:255 -1:255 32 0] 
s 1.600723163 _2_ RTR  --- 5 message 32 [0 0 0 0] ------- [2:255 -1:255 32 0] 
s 1.601098163 _2_ MAC  --- 5 message 90 [0 ffffffff 2 800] ------- [2:255 -1:255 32 0] 
r 1.601818497 _4_ MAC  --- 5 message 32 [0 ffffffff 2 800] ------- [2:255 -1:255 32 0] 
r 1.601818830 _0_ MAC  --- 5 message 32 [0 ffffffff 2 800] ------- [2:255 -1:255 32 0] 
r 1.601818830 _5_ MAC  --- 5 message 32 [0 ffffffff 2 800] ------- [2:255 -1:255 32 0] 
r 1.601818830 _3_ MAC  --- 5 message 32 [0 ffffffff 2 800] ------- [2:255 -1:255 32 0] 
r 1.601843497 _4_ RTR  --- 5 message 32 [0 ffffffff 2 800] ------- [2:255 -1:255 32 0] 
r 1.601843830 _0_ RTR  --- 5 message 32 [0 ffffffff 2 800] ------- [2:255 -1:255 32 0] 
r 1.601843830 _5_ RTR  --- 5 message 32 [0 ffffffff 2 800] ------- [2:255 -1:255 32 0] 
r 1.601843830 _3_ RTR  --- 5 message 32 [0 ffffffff 2 800] ------- [2:255 -1:255 32 0] 
s 1.642001558 _4_ RTR  --- 6 message 32 [0 0 0 0] ------- [4:255 -1:255 32 0] 
s 1.642356558 _4_ MAC  --- 6 message 90 [0 ffffffff 4 800] ------- [4:255 -1:255 32 0] 
r 1.643076891 _2_ MAC  --- 6 message 32 [0 ffffffff 4 800] ------- [4:255 -1:255 32 0] 
r 1.643076891 _5_ MAC  --- 6 message 32 [0 ffffffff 4 800] ------- [4:255 -1:255 32 0] 
r 1.643077303 _1_ MAC  --- 6 message 32 [0 ffffffff 4 800] ------- [4:255 -1:255 32 0] 
r 1.643077303 _0_ MAC  --- 6 message 32 [0 ffffffff 4 800] ------- [4:255 -1:255 32 0] 
r 1.643077303 _3_ MAC  --- 6 message 32 [0 ffffffff 4 800] ------- [4:255 -1:255 32 0] 
r 1.643077303 _6_ MAC  --- 6 message 32 [0 ffffffff 4 800] ------- [4:255 -1:255 32 0] 
r 1.643101891 _2_ RTR  --- 6 message 32 [0 ffffffff 4 800] ------- [4:255 -1:255 32 0] 
r 1.643101891 _5_ RTR  --- 6 message 32 [0 ffffffff 4 800] ------- [4:255 -1:255 32 0] 
r 1.643102303 _1_ RTR  --- 6 message 32 [0 ffffffff 4 800] ------- [4:255 -1:255 32 0] 
r 1.643102303 _0_ RTR  --- 6 message 32 [0 ffffffff 4 800] ------- [4:255 -1:255 32 0] 
r 1.643102303 _3_ RTR  --- 6 message 32 [0 ffffffff 4 800] ------- [4:255 -1:255 32 0] 
r 1.643102303 _6_ RTR  --- 6 message 32 [0 ffffffff 4 800] ------- [4:255 -1:255 32 0] 
s 3.000000000 _0_ AGT  --- 7 tcp 40 [0 0 0 0] ------- [0:0 3:0 32 0] [0 0] 0 0
r 3.000000000 _0_ RTR  --- 7 tcp 40 [0 0 0 0] ------- [0:0 3:0 32 0] [0 0] 0 0
s 3.000000000 _1_ AGT  --- 8 tcp 1000 [0 0 0 0] ------- [1:0 6:0 32 0] [0 0] 0 0
r 3.000000000 _1_ RTR  --- 8 tcp 1000 [0 0 0 0] ------- [1:0 6:0 32 0] [0 0] 0 0
s 6.000000000 _0_ AGT  --- 9 tcp 40 [0 0 0 0] ------- [0:0 3:0 32 0] [0 0] 0 0
r 6.000000000 _0_ RTR  --- 9 tcp 40 [0 0 0 0] ------- [0:0 3:0 32 0] [0 0] 0 0
s 6.000000000 _1_ AGT  --- 10 tcp 1000 [0 0 0 0] ------- [1:0 6:0 32 0] [0 0] 0 0
r 6.000000000 _1_ RTR  --- 10 tcp 1000 [0 0 0 0] ------- [1:0 6:0 32 0] [0 0] 0 0
s 6.000000000 _1_ AGT  --- 11 tcp 1000 [0 0 0 0] ------- [1:0 6:0 32 0] [1 0] 0 0
r 6.000000000 _1_ RTR  --- 11 tcp 1000 [0 0 0 0] ------- [1:0 6:0 32 0] [1 0] 0 0
s 12.000000000 _0_ AGT  --- 12 tcp 40 [0 0 0 0] ------- [0:0 3:0 32 0] [0 0] 0 0
r 12.000000000 _0_ RTR  --- 12 tcp 40 [0 0 0 0] ------- [0:0 3:0 32 0] [0 0] 0 0
s 12.000000000 _1_ AGT  --- 13 tcp 1000 [0 0 0 0] ------- [1:0 6:0 32 0] [0 0] 0 0
r 12.000000000 _1_ RTR  --- 13 tcp 1000 [0 0 0 0] ------- [1:0 6:0 32 0] [0 0] 0 0
s 12.000000000 _1_ AGT  --- 14 tcp 1000 [0 0 0 0] ------- [1:0 6:0 32 0] [1 0] 0 0
r 12.000000000 _1_ RTR  --- 14 tcp 1000 [0 0 0 0] ------- [1:0 6:0 32 0] [1 0] 0 0
s 12.147858088 _5_ RTR  --- 15 message 32 [0 0 0 0] ------- [5:255 -1:255 32 0] 
s 12.148153088 _5_ MAC  --- 15 message 90 [0 ffffffff 5 800] ------- [5:255 -1:255 32 0] 
r 12.148873422 _4_ MAC  --- 15 message 32 [0 ffffffff 5 800] ------- [5:255 -1:255 32 0] 
r 12.148873755 _2_ MAC  --- 15 message 32 [0 ffffffff 5 800] ------- [5:255 -1:255 32 0] 
r 12.148873755 _1_ MAC  --- 15 message 32 [0 ffffffff 5 800] ------- [5:255 -1:255 32 0] 
r 12.148873755 _6_ MAC  --- 15 message 32 [0 ffffffff 5 800] ------- [5:255 -1:255 32 0] 
r 12.148898422 _4_ RTR  --- 15 message 32 [0 ffffffff 5 800] ------- [5:255 -1:255 32 0] 
r 12.148898755 _2_ RTR  --- 15 message 32 [0 ffffffff 5 800] ------- [5:255 -1:255 32 0] 
r 12.148898755 _1_ RTR  --- 15 message 32 [0 ffffffff 5 800] ------- [5:255 -1:255 32 0] 
r 12.148898755 _6_ RTR  --- 15 message 32 [0 ffffffff 5 800] ------- [5:255 -1:255 32 0] 
s 12.180304962 _4_ RTR  --- 18 message 32 [0 0 0 0] ------- [4:255 -1:255 32 0] 
s 12.180719962 _4_ MAC  --- 18 message 90 [0 ffffffff 4 800] ------- [4:255 -1:255 32 0] 
s 12.180780826 _2_ RTR  --- 17 message 32 [0 0 0 0] ------- [2:255 -1:255 32 0] 
s 12.181317113 _1_ RTR  --- 16 message 32 [0 0 0 0] ------- [1:255 -1:255 32 0] 
r 12.181440295 _2_ MAC  --- 18 message 32 [0 ffffffff 4 800] ------- [4:255 -1:255 32 0] 
r 12.181440295 _5_ MAC  --- 18 message 32 [0 ffffffff 4 800] ------- [4:255 -1:255 32 0] 
r 12.181440707 _1_ MAC  --- 18 message 32 [0 ffffffff 4 800] ------- [4:255 -1:255 32 0] 
r 12.181440707 _0_ MAC  --- 18 message 32 [0 ffffffff 4 800] ------- [4:255 -1:255 32 0] 
r 12.181440707 _3_ MAC  --- 18 message 32 [0 ffffffff 4 800] ------- [4:255 -1:255 32 0] 
r 12.181440707 _6_ MAC  --- 18 message 32 [0 ffffffff 4 800] ------- [4:255 -1:255 32 0] 
r 12.181465295 _2_ RTR  --- 18 message 32 [0 ffffffff 4 800] ------- [4:255 -1:255 32 0] 
r 12.181465295 _5_ RTR  --- 18 message 32 [0 ffffffff 4 800] ------- [4:255 -1:255 32 0] 
r 12.181465707 _1_ RTR  --- 18 message 32 [0 ffffffff 4 800] ------- [4:255 -1:255 32 0] 
r 12.181465707 _0_ RTR  --- 18 message 32 [0 ffffffff 4 800] ------- [4:255 -1:255 32 0] 
r 12.181465707 _3_ RTR  --- 18 message 32 [0 ffffffff 4 800] ------- [4:255 -1:255 32 0] 
r 12.181465707 _6_ RTR  --- 18 message 32 [0 ffffffff 4 800] ------- [4:255 -1:255 32 0] 
s 12.181770707 _1_ MAC  --- 16 message 90 [0 ffffffff 1 800] ------- [1:255 -1:255 32 0] 
r 12.182491374 _0_ MAC  --- 16 message 32 [0 ffffffff 1 800] ------- [1:255 -1:255 32 0] 
r 12.182491374 _5_ MAC  --- 16 message 32 [0 ffffffff 1 800] ------- [1:255 -1:255 32 0] 
r 12.182491453 _4_ MAC  --- 16 message 32 [0 ffffffff 1 800] ------- [1:255 -1:255 32 0] 
r 12.182516374 _0_ RTR  --- 16 message 32 [0 ffffffff 1 800] ------- [1:255 -1:255 32 0] 
r 12.182516374 _5_ RTR  --- 16 message 32 [0 ffffffff 1 800] ------- [1:255 -1:255 32 0] 
r 12.182516453 _4_ RTR  --- 16 message 32 [0 ffffffff 1 800] ------- [1:255 -1:255 32 0] 
s 12.183125650 _2_ MAC  --- 17 message 90 [0 ffffffff 2 800] ------- [2:255 -1:255 32 0] 
r 12.183845983 _4_ MAC  --- 17 message 32 [0 ffffffff 2 800] ------- [2:255 -1:255 32 0] 
r 12.183846317 _0_ MAC  --- 17 message 32 [0 ffffffff 2 800] ------- [2:255 -1:255 32 0] 
r 12.183846317 _5_ MAC  --- 17 message 32 [0 ffffffff 2 800] ------- [2:255 -1:255 32 0] 
r 12.183846317 _3_ MAC  --- 17 message 32 [0 ffffffff 2 800] ------- [2:255 -1:255 32 0] 
r 12.183870983 _4_ RTR  --- 17 message 32 [0 ffffffff 2 800] ------- [2:255 -1:255 32 0] 
r 12.183871317 _0_ RTR  --- 17 message 32 [0 ffffffff 2 800] ------- [2:255 -1:255 32 0] 
r 12.183871317 _5_ RTR  --- 17 message 32 [0 ffffffff 2 800] ------- [2:255 -1:255 32 0] 
r 12.183871317 _3_ RTR  --- 17 message 32 [0 ffffffff 2 800] ------- [2:255 -1:255 32 0] 
s 12.234392468 _3_ RTR  --- 19 message 32 [0 0 0 0] ------- [3:255 -1:255 32 0] 
s 12.234787468 _3_ MAC  --- 19 message 90 [0 ffffffff 3 800] ------- [3:255 -1:255 32 0] 
r 12.235508134 _2_ MAC  --- 19 message 32 [0 ffffffff 3 800] ------- [3:255 -1:255 32 0] 
r 12.235508134 _6_ MAC  --- 19 message 32 [0 ffffffff 3 800] ------- [3:255 -1:255 32 0] 
r 12.235508213 _4_ MAC  --- 19 message 32 [0 ffffffff 3 800] ------- [3:255 -1:255 32 0] 
r 12.235533134 _2_ RTR  --- 19 message 32 [0 ffffffff 3 800] ------- [3:255 -1:255 32 0] 
r 12.235533134 _6_ RTR  --- 19 message 32 [0 ffffffff 3 800] ------- [3:255 -1:255 32 0] 
r 12.235533213 _4_ RTR  --- 19 message 32 [0 ffffffff 3 800] ------- [3:255 -1:255 32 0] 
s 12.890245183 _0_ RTR  --- 22 message 32 [0 0 0 0] ------- [0:255 -1:255 32 0] 
s 12.890400183 _0_ MAC  --- 22 message 90 [0 ffffffff 0 800] ------- [0:255 -1:255 32 0] 
r 12.891120850 _1_ MAC  --- 22 message 32 [0 ffffffff 0 800] ------- [0:255 -1:255 32 0] 
r 12.891120850 _2_ MAC  --- 22 message 32 [0 ffffffff 0 800] ------- [0:255 -1:255 32 0] 
r 12.891120928 _4_ MAC  --- 22 message 32 [0 ffffffff 0 800] ------- [0:255 -1:255 32 0] 
r 12.891145850 _1_ RTR  --- 22 message 32 [0 ffffffff 0 800] ------- [0:255 -1:255 32 0] 
r 12.891145850 _2_ RTR  --- 22 message 32 [0 ffffffff 0 800] ------- [0:255 -1:255 32 0] 
r 12.891145928 _4_ RTR  --- 22 message 32 [0 ffffffff 0 800] ------- [0:255 -1:255 32 0] 
s 13.147846578 _5_ RTR  --- 23 message 32 [0 0 0 0] ------- [5:255 -1:255 32 0] 
s 13.148161578 _5_ MAC  --- 23 message 90 [0 ffffffff 5 800] ------- [5:255 -1:255 32 0] 
r 13.148881912 _4_ MAC  --- 23 message 32 [0 ffffffff 5 800] ------- [5:255 -1:255 32 0] 
r 13.148882245 _2_ MAC  --- 23 message 32 [0 ffffffff 5 800] ------- [5:255 -1:255 32 0] 
r 13.148882245 _1_ MAC  --- 23 message 32 [0 ffffffff 5 800] ------- [5:255 -1:255 32 0] 
r 13.148882245 _6_ MAC  --- 23 message 32 [0 ffffffff 5 800] ------- [5:255 -1:255 32 0] 
r 13.148906912 _4_ RTR  --- 23 message 32 [0 ffffffff 5 800] ------- [5:255 -1:255 32 0] 
r 13.148907245 _2_ RTR  --- 23 message 32 [0 ffffffff 5 800] ------- [5:255 -1:255 32 0] 
r 13.148907245 _1_ RTR  --- 23 message 32 [0 ffffffff 5 800] ------- [5:255 -1:255 32 0] 
r 13.148907245 _6_ RTR  --- 23 message 32 [0 ffffffff 5 800] ------- [5:255 -1:255 32 0] 
s 13.182264140 _1_ RTR  --- 25 message 32 [0 0 0 0] ------- [1:255 -1:255 32 0] 
s 13.182579140 _1_ MAC  --- 25 message 90 [0 ffffffff 1 800] ------- [1:255 -1:255 32 0] 
r 13.183299807 _0_ MAC  --- 25 message 32 [0 ffffffff 1 800] ------- [1:255 -1:255 32 0] 
r 13.183299807 _5_ MAC  --- 25 message 32 [0 ffffffff 1 800] ------- [1:255 -1:255 32 0] 
r 13.183299886 _4_ MAC  --- 25 message 32 [0 ffffffff 1 800] ------- [1:255 -1:255 32 0] 
r 13.183324807 _0_ RTR  --- 25 message 32 [0 ffffffff 1 800] ------- [1:255 -1:255 32 0] 
r 13.183324807 _5_ RTR  --- 25 message 32 [0 ffffffff 1 800] ------- [1:255 -1:255 32 0] 
r 13.183324886 _4_ RTR  --- 25 message 32 [0 ffffffff 1 800] ------- [1:255 -1:255 32 0] 
s 13.187146251 _4_ RTR  --- 26 message 44 [0 0 0 0] ------- [4:255 -1:255 32 0] 
s 13.187521251 _4_ MAC  --- 26 message 102 [0 ffffffff 4 800] ------- [4:255 -1:255 32 0] 
s 13.187923757 _2_ RTR  --- 24 message 32 [0 0 0 0] ------- [2:255 -1:255 32 0] 
r 13.188337585 _2_ MAC  --- 26 message 44 [0 ffffffff 4 800] ------- [4:255 -1:255 32 0] 
r 13.188337585 _5_ MAC  --- 26 message 44 [0 ffffffff 4 800] ------- [4:255 -1:255 32 0] 
r 13.188337997 _1_ MAC  --- 26 message 44 [0 ffffffff 4 800] ------- [4:255 -1:255 32 0] 
r 13.188337997 _0_ MAC  --- 26 message 44 [0 ffffffff 4 800] ------- [4:255 -1:255 32 0] 
r 13.188337997 _3_ MAC  --- 26 message 44 [0 ffffffff 4 800] ------- [4:255 -1:255 32 0] 
r 13.188337997 _6_ MAC  --- 26 message 44 [0 ffffffff 4 800] ------- [4:255 -1:255 32 0] 
r 13.188362585 _2_ RTR  --- 26 message 44 [0 ffffffff 4 800] ------- [4:255 -1:255 32 0] 
r 13.188362585 _5_ RTR  --- 26 message 44 [0 ffffffff 4 800] ------- [4:255 -1:255 32 0] 
r 13.188362997 _1_ RTR  --- 26 message 44 [0 ffffffff 4 800] ------- [4:255 -1:255 32 0] 
r 13.188362997 _0_ RTR  --- 26 message 44 [0 ffffffff 4 800] ------- [4:255 -1:255 32 0] 
r 13.188362997 _3_ RTR  --- 26 message 44 [0 ffffffff 4 800] ------- [4:255 -1:255 32 0] 
r 13.188362997 _6_ RTR  --- 26 message 44 [0 ffffffff 4 800] ------- [4:255 -1:255 32 0] 
s 13.188427585 _2_ MAC  --- 24 message 90 [0 ffffffff 2 800] ------- [2:255 -1:255 32 0] 
r 13.189147918 _4_ MAC  --- 24 message 32 [0 ffffffff 2 800] ------- [2:255 -1:255 32 0] 
r 13.189148251 _0_ MAC  --- 24 message 32 [0 ffffffff 2 800] ------- [2:255 -1:255 32 0] 
r 13.189148251 _5_ MAC  --- 24 message 32 [0 ffffffff 2 800] ------- [2:255 -1:255 32 0] 
r 13.189148251 _3_ MAC  --- 24 message 32 [0 ffffffff 2 800] ------- [2:255 -1:255 32 0] 
r 13.189172918 _4_ RTR  --- 24 message 32 [0 ffffffff 2 800] ------- [2:255 -1:255 32 0] 
r 13.189173251 _0_ RTR  --- 24 message 32 [0 ffffffff 2 800] ------- [2:255 -1:255 32 0] 
r 13.189173251 _5_ RTR  --- 24 message 32 [0 ffffffff 2 800] ------- [2:255 -1:255 32 0] 
r 13.189173251 _3_ RTR  --- 24 message 32 [0 ffffffff 2 800] ------- [2:255 -1:255 32 0] 
s 13.291203007 _3_ RTR  --- 27 message 32 [0 0 0 0] ------- [3:255 -1:255 32 0] 
s 13.291378007 _3_ MAC  --- 27 message 90 [0 ffffffff 3 800] ------- [3:255 -1:255 32 0] 
r 13.292098674 _2_ MAC  --- 27 message 32 [0 ffffffff 3 800] ------- [3:255 -1:255 32 0] 
r 13.292098674 _6_ MAC  --- 27 message 32 [0 ffffffff 3 800] ------- [3:255 -1:255 32 0] 
r 13.292098752 _4_ MAC  --- 27 message 32 [0 ffffffff 3 800] ------- [3:255 -1:255 32 0] 
r 13.292123674 _2_ RTR  --- 27 message 32 [0 ffffffff 3 800] ------- [3:255 -1:255 32 0] 
r 13.292123674 _6_ RTR  --- 27 message 32 [0 ffffffff 3 800] ------- [3:255 -1:255 32 0] 
r 13.292123752 _4_ RTR  --- 27 message 32 [0 ffffffff 3 800] ------- [3:255 -1:255 32 0] 
s 13.643984304 _6_ RTR  --- 28 message 32 [0 0 0 0] ------- [6:255 -1:255 32 0] 
s 13.644259304 _6_ MAC  --- 28 message 90 [0 ffffffff 6 800] ------- [6:255 -1:255 32 0] 
r 13.644979971 _3_ MAC  --- 28 message 32 [0 ffffffff 6 800] ------- [6:255 -1:255 32 0] 
r 13.644979971 _5_ MAC  --- 28 message 32 [0 ffffffff 6 800] ------- [6:255 -1:255 32 0] 
r 13.644980050 _4_ MAC  --- 28 message 32 [0 ffffffff 6 800] ------- [6:255 -1:255 32 0] 
r 13.645004971 _3_ RTR  --- 28 message 32 [0 ffffffff 6 800] ------- [6:255 -1:255 32 0] 
r 13.645004971 _5_ RTR  --- 28 message 32 [0 ffffffff 6 800] ------- [6:255 -1:255 32 0] 
r 13.645005050 _4_ RTR  --- 28 message 32 [0 ffffffff 6 800] ------- [6:255 -1:255 32 0] 
s 13.672198467 _1_ RTR  --- 29 message 56 [0 0 0 0] ------- [1:255 -1:255 32 0] 
s 13.672393467 _1_ MAC  --- 29 message 114 [0 ffffffff 1 800] ------- [1:255 -1:255 32 0] 
r 13.673306134 _0_ MAC  --- 29 message 56 [0 ffffffff 1 800] ------- [1:255 -1:255 32 0] 
r 13.673306134 _5_ MAC  --- 29 message 56 [0 ffffffff 1 800] ------- [1:255 -1:255 32 0] 
r 13.673306212 _4_ MAC  --- 29 message 56 [0 ffffffff 1 800] ------- [1:255 -1:255 32 0] 
r 13.673331134 _0_ RTR  --- 29 message 56 [0 ffffffff 1 800] ------- [1:255 -1:255 32 0] 
r 13.673331134 _5_ RTR  --- 29 message 56 [0 ffffffff 1 800] ------- [1:255 -1:255 32 0] 
r 13.673331212 _4_ RTR  --- 29 message 56 [0 ffffffff 1 800] ------- [1:255 -1:255 32 0] 
s 13.894008429 _0_ RTR  --- 30 message 44 [0 0 0 0] ------- [0:255 -1:255 32 0] 
s 13.894203429 _0_ MAC  --- 30 message 102 [0 ffffffff 0 800] ------- [0:255 -1:255 32 0] 
r 13.895020096 _1_ MAC  --- 30 message 44 [0 ffffffff 0 800] ------- [0:255 -1:255 32 0] 
r 13.895020096 _2_ MAC  --- 30 message 44 [0 ffffffff 0 800] ------- [0:255 -1:255 32 0] 
r 13.895020174 _4_ MAC  --- 30 message 44 [0 ffffffff 0 800] ------- [0:255 -1:255 32 0] 
r 13.895045096 _1_ RTR  --- 30 message 44 [0 ffffffff 0 800] ------- [0:255 -1:255 32 0] 
r 13.895045096 _2_ RTR  --- 30 message 44 [0 ffffffff 0 800] ------- [0:255 -1:255 32 0] 
r 13.895045174 _4_ RTR  --- 30 message 44 [0 ffffffff 0 800] ------- [0:255 -1:255 32 0] 
s 14.154140259 _5_ RTR  --- 31 message 56 [0 0 0 0] ------- [5:255 -1:255 32 0] 
s 14.154755259 _5_ MAC  --- 31 message 114 [0 ffffffff 5 800] ------- [5:255 -1:255 32 0] 
r 14.155667593 _4_ MAC  --- 31 message 56 [0 ffffffff 5 800] ------- [5:255 -1:255 32 0] 
r 14.155667926 _2_ MAC  --- 31 message 56 [0 ffffffff 5 800] ------- [5:255 -1:255 32 0] 
r 14.155667926 _1_ MAC  --- 31 message 56 [0 ffffffff 5 800] ------- [5:255 -1:255 32 0] 
r 14.155667926 _6_ MAC  --- 31 message 56 [0 ffffffff 5 800] ------- [5:255 -1:255 32 0] 
r 14.155692593 _4_ RTR  --- 31 message 56 [0 ffffffff 5 800] ------- [5:255 -1:255 32 0] 
r 14.155692926 _2_ RTR  --- 31 message 56 [0 ffffffff 5 800] ------- [5:255 -1:255 32 0] 
r 14.155692926 _1_ RTR  --- 31 message 56 [0 ffffffff 5 800] ------- [5:255 -1:255 32 0] 
s 14.155692926 _1_ RTR  --- 8 tcp 1040 [0 0 0 0] ------- [1:0 6:0 32 5] [0 0] 0 0
s 14.155692926 _1_ RTR  --- 10 tcp 1040 [0 0 0 0] ------- [1:0 6:0 32 5] [0 0] 0 0
D 14.155692926 _1_ IFQ  ARP 8 tcp 1040 [0 0 1 800] ------- [1:0 6:0 32 5] [0 0] 0 0
s 14.155692926 _1_ RTR  --- 11 tcp 1040 [0 0 0 0] ------- [1:0 6:0 32 5] [1 0] 0 0
D 14.155692926 _1_ IFQ  ARP 10 tcp 1040 [0 0 1 800] ------- [1:0 6:0 32 5] [0 0] 0 0
s 14.155692926 _1_ RTR  --- 13 tcp 1040 [0 0 0 0] ------- [1:0 6:0 32 5] [0 0] 0 0
D 14.155692926 _1_ RTR  CBK 11 tcp 1040 [0 0 1 800] ------- [1:0 6:0 32 5] [1 0] 0 0
D 14.155692926 _1_ RTR  CBK 13 tcp 1040 [0 0 1 800] ------- [1:0 6:0 32 5] [0 0] 0 0
s 14.155692926 _1_ RTR  --- 14 tcp 1040 [0 0 0 0] ------- [1:0 6:0 32 5] [1 0] 0 0
r 14.155692926 _6_ RTR  --- 31 message 56 [0 ffffffff 5 800] ------- [5:255 -1:255 32 0] 
s 14.156047926 _1_ MAC  --- 0 ARP 86 [0 ffffffff 1 806] ------- [REQUEST 1/1 0/5]
r 14.156736593 _0_ MAC  --- 0 ARP 28 [0 ffffffff 1 806] ------- [REQUEST 1/1 0/5]
r 14.156736593 _5_ MAC  --- 0 ARP 28 [0 ffffffff 1 806] ------- [REQUEST 1/1 0/5]
r 14.156736671 _4_ MAC  --- 0 ARP 28 [0 ffffffff 1 806] ------- [REQUEST 1/1 0/5]
s 14.157085926 _1_ MAC  --- 0 ARP 86 [0 ffffffff 1 806] ------- [REQUEST 1/1 0/5]
r 14.157774593 _0_ MAC  --- 0 ARP 28 [0 ffffffff 1 806] ------- [REQUEST 1/1 0/5]
r 14.157774593 _5_ MAC  --- 0 ARP 28 [0 ffffffff 1 806] ------- [REQUEST 1/1 0/5]
r 14.157774671 _4_ MAC  --- 0 ARP 28 [0 ffffffff 1 806] ------- [REQUEST 1/1 0/5]
s 14.157863926 _1_ MAC  --- 0 ARP 86 [0 ffffffff 1 806] ------- [REQUEST 1/1 0/5]
r 14.158552593 _0_ MAC  --- 0 ARP 28 [0 ffffffff 1 806] ------- [REQUEST 1/1 0/5]
r 14.158552593 _5_ MAC  --- 0 ARP 28 [0 ffffffff 1 806] ------- [REQUEST 1/1 0/5]
r 14.158552671 _4_ MAC  --- 0 ARP 28 [0 ffffffff 1 806] ------- [REQUEST 1/1 0/5]
s 14.158622593 _5_ MAC  --- 0 RTS 44 [52e 1 5 0] 
r 14.158975259 _1_ MAC  --- 0 RTS 44 [52e 1 5 0] 
s 14.158985259 _1_ MAC  --- 0 CTS 38 [3f4 5 0 0] 
r 14.159289926 _5_ MAC  --- 0 CTS 38 [3f4 5 0 0] 
s 14.159299926 _5_ MAC  --- 0 ARP 86 [13a 1 5 806] ------- [REPLY 5/5 1/1]
r 14.159988593 _1_ MAC  --- 0 ARP 28 [13a 1 5 806] ------- [REPLY 5/5 1/1]
s 14.159998593 _1_ MAC  --- 0 ACK 38 [0 5 0 0] 
r 14.160303259 _5_ MAC  --- 0 ACK 38 [0 5 0 0] 
s 14.160573259 _5_ MAC  --- 0 RTS 44 [52e 1 5 0] 
r 14.160925926 _1_ MAC  --- 0 RTS 44 [52e 1 5 0] 
s 14.160935926 _1_ MAC  --- 0 CTS 38 [3f4 5 0 0] 
r 14.161240593 _5_ MAC  --- 0 CTS 38 [3f4 5 0 0] 
s 14.161250593 _5_ MAC  --- 0 ARP 86 [13a 1 5 806] ------- [REPLY 5/5 1/1]
r 14.161939259 _1_ MAC  --- 0 ARP 28 [13a 1 5 806] ------- [REPLY 5/5 1/1]
s 14.161949259 _1_ MAC  --- 0 ACK 38 [0 5 0 0] 
r 14.162253926 _5_ MAC  --- 0 ACK 38 [0 5 0 0] 
s 14.162483926 _5_ MAC  --- 0 RTS 44 [52e 1 5 0] 
r 14.162836593 _1_ MAC  --- 0 RTS 44 [52e 1 5 0] 
s 14.162846593 _1_ MAC  --- 0 CTS 38 [3f4 5 0 0] 
r 14.163151259 _5_ MAC  --- 0 CTS 38 [3f4 5 0 0] 
s 14.163161259 _5_ MAC  --- 0 ARP 86 [13a 1 5 806] ------- [REPLY 5/5 1/1]
r 14.163849926 _1_ MAC  --- 0 ARP 28 [13a 1 5 806] ------- [REPLY 5/5 1/1]
s 14.163859926 _1_ MAC  --- 0 ACK 38 [0 5 0 0] 
r 14.164164593 _5_ MAC  --- 0 ACK 38 [0 5 0 0] 
s 14.164373926 _1_ MAC  --- 0 ARP 86 [0 ffffffff 1 806] ------- [REQUEST 1/1 0/5]
r 14.165062593 _0_ MAC  --- 0 ARP 28 [0 ffffffff 1 806] ------- [REQUEST 1/1 0/5]
r 14.165062593 _5_ MAC  --- 0 ARP 28 [0 ffffffff 1 806] ------- [REQUEST 1/1 0/5]
r 14.165062671 _4_ MAC  --- 0 ARP 28 [0 ffffffff 1 806] ------- [REQUEST 1/1 0/5]
s 14.165517593 _5_ MAC  --- 0 RTS 44 [52e 1 5 0] 
r 14.165870259 _1_ MAC  --- 0 RTS 44 [52e 1 5 0] 
s 14.165880259 _1_ MAC  --- 0 CTS 38 [3f4 5 0 0] 
r 14.166184926 _5_ MAC  --- 0 CTS 38 [3f4 5 0 0] 
s 14.166194926 _5_ MAC  --- 0 ARP 86 [13a 1 5 806] ------- [REPLY 5/5 1/1]
r 14.166883593 _1_ MAC  --- 0 ARP 28 [13a 1 5 806] ------- [REPLY 5/5 1/1]
s 14.166893593 _1_ MAC  --- 0 ACK 38 [0 5 0 0] 
r 14.167198259 _5_ MAC  --- 0 ACK 38 [0 5 0 0] 
s 14.167287593 _1_ MAC  --- 0 RTS 44 [24ce 5 1 0] 
r 14.167640259 _5_ MAC  --- 0 RTS 44 [24ce 5 1 0] 
s 14.167650259 _5_ MAC  --- 0 CTS 38 [2394 1 0 0] 
r 14.167954926 _1_ MAC  --- 0 CTS 38 [2394 1 0 0] 
s 14.167964926 _1_ MAC  --- 14 tcp 1098 [13a 5 1 800] ------- [1:0 6:0 32 5] [1 0] 0 0
r 14.176749593 _5_ MAC  --- 14 tcp 1040 [13a 5 1 800] ------- [1:0 6:0 32 5] [1 0] 1 0
s 14.176759593 _5_ MAC  --- 0 ACK 38 [0 1 0 0] 
r 14.176774593 _5_ RTR  --- 14 tcp 1040 [13a 5 1 800] ------- [1:0 6:0 32 5] [1 0] 1 0
f 14.176774593 _5_ RTR  --- 14 tcp 1040 [13a 5 1 800] ------- [1:0 6:0 31 6] [1 0] 1 0
r 14.177064259 _1_ MAC  --- 0 ACK 38 [0 1 0 0] 
s 14.177193593 _5_ MAC  --- 0 ARP 86 [0 ffffffff 5 806] ------- [REQUEST 5/5 0/6]
r 14.177881926 _4_ MAC  --- 0 ARP 28 [0 ffffffff 5 806] ------- [REQUEST 5/5 0/6]
r 14.177882259 _2_ MAC  --- 0 ARP 28 [0 ffffffff 5 806] ------- [REQUEST 5/5 0/6]
r 14.177882259 _1_ MAC  --- 0 ARP 28 [0 ffffffff 5 806] ------- [REQUEST 5/5 0/6]
r 14.177882259 _6_ MAC  --- 0 ARP 28 [0 ffffffff 5 806] ------- [REQUEST 5/5 0/6]
s 14.177937259 _6_ MAC  --- 0 RTS 44 [52e 5 6 0] 
r 14.178289926 _5_ MAC  --- 0 RTS 44 [52e 5 6 0] 
s 14.178299926 _5_ MAC  --- 0 CTS 38 [3f4 6 0 0] 
r 14.178604593 _6_ MAC  --- 0 CTS 38 [3f4 6 0 0] 
s 14.178614593 _6_ MAC  --- 0 ARP 86 [13a 5 6 806] ------- [REPLY 6/6 5/5]
r 14.179303259 _5_ MAC  --- 0 ARP 28 [13a 5 6 806] ------- [REPLY 6/6 5/5]
s 14.179313259 _5_ MAC  --- 0 ACK 38 [0 6 0 0] 
r 14.179617926 _6_ MAC  --- 0 ACK 38 [0 6 0 0] 
s 14.179887259 _5_ MAC  --- 0 RTS 44 [24ce 6 5 0] 
r 14.180239926 _6_ MAC  --- 0 RTS 44 [24ce 6 5 0] 
s 14.180249926 _6_ MAC  --- 0 CTS 38 [2394 5 0 0] 
r 14.180554593 _5_ MAC  --- 0 CTS 38 [2394 5 0 0] 
s 14.180564593 _5_ MAC  --- 14 tcp 1098 [13a 6 5 800] ------- [1:0 6:0 31 6] [1 0] 1 0
s 14.188255197 _4_ RTR  --- 33 message 56 [0 0 0 0] ------- [4:255 -1:255 32 0] 
s 14.188996756 _2_ RTR  --- 32 message 44 [0 0 0 0] ------- [2:255 -1:255 32 0] 
r 14.189349259 _6_ MAC  --- 14 tcp 1040 [13a 6 5 800] ------- [1:0 6:0 31 6] [1 0] 2 0
s 14.189359259 _6_ MAC  --- 0 ACK 38 [0 5 0 0] 
r 14.189374259 _6_ AGT  --- 14 tcp 1040 [13a 6 5 800] ------- [1:0 6:0 31 6] [1 0] 2 0
s 14.189374259 _6_ AGT  --- 34 ack 40 [0 0 0 0] ------- [6:0 1:0 32 0] [-1 0] 0 0
r 14.189374259 _6_ RTR  --- 34 ack 40 [0 0 0 0] ------- [6:0 1:0 32 0] [-1 0] 0 0
s 14.189374259 _6_ RTR  --- 34 ack 60 [0 0 0 0] ------- [6:0 1:0 32 5] [-1 0] 0 0
r 14.189663926 _5_ MAC  --- 0 ACK 38 [0 5 0 0] 
s 14.190033259 _6_ MAC  --- 0 RTS 44 [62e 5 6 0] 
r 14.190385926 _5_ MAC  --- 0 RTS 44 [62e 5 6 0] 
s 14.190395926 _5_ MAC  --- 0 CTS 38 [4f4 6 0 0] 
r 14.190700593 _6_ MAC  --- 0 CTS 38 [4f4 6 0 0] 
s 14.190710593 _6_ MAC  --- 34 ack 118 [13a 5 6 800] ------- [6:0 1:0 32 5] [-1 0] 0 0
r 14.191655259 _5_ MAC  --- 34 ack 60 [13a 5 6 800] ------- [6:0 1:0 32 5] [-1 0] 1 0
s 14.191665259 _5_ MAC  --- 0 ACK 38 [0 6 0 0] 
r 14.191680259 _5_ RTR  --- 34 ack 60 [13a 5 6 800] ------- [6:0 1:0 32 5] [-1 0] 1 0
f 14.191680259 _5_ RTR  --- 34 ack 60 [13a 5 6 800] ------- [6:0 1:0 31 1] [-1 0] 1 0
r 14.191969926 _6_ MAC  --- 0 ACK 38 [0 6 0 0] 
s 14.192039259 _5_ MAC  --- 0 RTS 44 [62e 1 5 0] 
r 14.192391926 _1_ MAC  --- 0 RTS 44 [62e 1 5 0] 
s 14.192401926 _1_ MAC  --- 0 CTS 38 [4f4 5 0 0] 
r 14.192706593 _5_ MAC  --- 0 CTS 38 [4f4 5 0 0] 
s 14.192716593 _5_ MAC  --- 34 ack 118 [13a 1 5 800] ------- [6:0 1:0 31 1] [-1 0] 1 0
r 14.193661259 _1_ MAC  --- 34 ack 60 [13a 1 5 800] ------- [6:0 1:0 31 1] [-1 0] 2 0
s 14.193671259 _1_ MAC  --- 0 ACK 38 [0 5 0 0] 
r 14.193686259 _1_ AGT  --- 34 ack 60 [13a 1 5 800] ------- [6:0 1:0 31 1] [-1 0] 2 0
r 14.193975926 _5_ MAC  --- 0 ACK 38 [0 5 0 0] 
s 14.194126005 _4_ MAC  --- 33 message 114 [0 ffffffff 4 800] ------- [4:255 -1:255 32 0] 
r 14.195038338 _2_ MAC  --- 33 message 56 [0 ffffffff 4 800] ------- [4:255 -1:255 32 0] 
r 14.195038338 _5_ MAC  --- 33 message 56 [0 ffffffff 4 800] ------- [4:255 -1:255 32 0] 
r 14.195038750 _1_ MAC  --- 33 message 56 [0 ffffffff 4 800] ------- [4:255 -1:255 32 0] 
r 14.195038750 _0_ MAC  --- 33 message 56 [0 ffffffff 4 800] ------- [4:255 -1:255 32 0] 
r 14.195038750 _3_ MAC  --- 33 message 56 [0 ffffffff 4 800] ------- [4:255 -1:255 32 0] 
r 14.195038750 _6_ MAC  --- 33 message 56 [0 ffffffff 4 800] ------- [4:255 -1:255 32 0] 
r 14.195063338 _2_ RTR  --- 33 message 56 [0 ffffffff 4 800] ------- [4:255 -1:255 32 0] 
r 14.195063338 _5_ RTR  --- 33 message 56 [0 ffffffff 4 800] ------- [4:255 -1:255 32 0] 
r 14.195063750 _1_ RTR  --- 33 message 56 [0 ffffffff 4 800] ------- [4:255 -1:255 32 0] 
r 14.195063750 _0_ RTR  --- 33 message 56 [0 ffffffff 4 800] ------- [4:255 -1:255 32 0] 
r 14.195063750 _3_ RTR  --- 33 message 56 [0 ffffffff 4 800] ------- [4:255 -1:255 32 0] 
r 14.195063750 _6_ RTR  --- 33 message 56 [0 ffffffff 4 800] ------- [4:255 -1:255 32 0] 
s 14.195588338 _2_ MAC  --- 32 message 102 [0 ffffffff 2 800] ------- [2:255 -1:255 32 0] 
r 14.196404671 _4_ MAC  --- 32 message 44 [0 ffffffff 2 800] ------- [2:255 -1:255 32 0] 
r 14.196405005 _0_ MAC  --- 32 message 44 [0 ffffffff 2 800] ------- [2:255 -1:255 32 0] 
r 14.196405005 _5_ MAC  --- 32 message 44 [0 ffffffff 2 800] ------- [2:255 -1:255 32 0] 
r 14.196405005 _3_ MAC  --- 32 message 44 [0 ffffffff 2 800] ------- [2:255 -1:255 32 0] 
r 14.196429671 _4_ RTR  --- 32 message 44 [0 ffffffff 2 800] ------- [2:255 -1:255 32 0] 
r 14.196430005 _0_ RTR  --- 32 message 44 [0 ffffffff 2 800] ------- [2:255 -1:255 32 0] 
r 14.196430005 _5_ RTR  --- 32 message 44 [0 ffffffff 2 800] ------- [2:255 -1:255 32 0] 
r 14.196430005 _3_ RTR  --- 32 message 44 [0 ffffffff 2 800] ------- [2:255 -1:255 32 0] 
s 14.290273166 _3_ RTR  --- 35 message 56 [0 0 0 0] ------- [3:255 -1:255 32 0] 
s 14.290948166 _3_ MAC  --- 35 message 114 [0 ffffffff 3 800] ------- [3:255 -1:255 32 0] 
r 14.291860832 _2_ MAC  --- 35 message 56 [0 ffffffff 3 800] ------- [3:255 -1:255 32 0] 
r 14.291860832 _6_ MAC  --- 35 message 56 [0 ffffffff 3 800] ------- [3:255 -1:255 32 0] 