n -t * -s 0  -x 0 -y 0 -Z 0 -z 20  -v circle -c black
n -t * -s 1  -x 0 -y 0 -Z 0 -z 20  -v circle -c black
n -t * -s 2  -x 0 -y 0 -Z 0 -z 20  -v circle -c black
n -t * -s 3  -x 0 -y 0 -Z 0 -z 20  -v circle -c black
n -t * -s 4  -x 0 -y 0 -Z 0 -z 20  -v circle -c black
n -t * -s 5  -x 0 -y 0 -Z 0 -z 20  -v circle -c black
n -t * -s 6  -x 0 -y 0 -Z 0 -z 20  -v circle -c black
V -t * -v 1.0a5 -a 0
W -t * -x 600 -y 400
A -t * -n 1 -p 0 -o 0x7fffffff -c 30 -a 1
A -t * -h 1 -m 1073741823 -s 0
c -t * -i 1 -n Blue
c -t * -i 2 -n Red
n -t 0.000000 -s 0 -x 100.000000 -y 300.000000 -U 0.000000 -V 0.000000 -T 0.000000
n -t 0.000000 -s 1 -x 100.000000 -y 100.000000 -U 0.000000 -V 0.000000 -T 0.000000
n -t 0.000000 -s 2 -x 300.000000 -y 300.000000 -U 0.000000 -V 0.000000 -T 0.000000
n -t 0.000000 -s 3 -x 500.000000 -y 300.000000 -U 0.000000 -V 0.000000 -T 0.000000
n -t 0.000000 -s 4 -x 300.000000 -y 200.000000 -U 0.000000 -V 0.000000 -T 0.000000
n -t 0.000000 -s 5 -x 300.000000 -y 100.000000 -U 0.000000 -V 0.000000 -T 0.000000
n -t 0.000000 -s 6 -x 500.000000 -y 100.000000 -U 0.000000 -V 0.000000 -T 0.000000
+ -t 0.034797973 -s 0 -d -1 -p message -e 32 -c 2 -a 0 -i 0 -k RTR 
- -t 0.034797973 -s 0 -d -1 -p message -e 32 -c 2 -a 0 -i 0 -k RTR
h -t 0.034797973 -s 0 -d -1 -p message -e 32 -c 2 -a 0 -i 0 -k RTR
+ -t 0.035112973 -s 0 -d -1 -p message -e 90 -c 2 -a 0 -i 0 -k MAC 
- -t 0.035112973 -s 0 -d -1 -p message -e 90 -c 2 -a 0 -i 0 -k MAC
h -t 0.035112973 -s 0 -d -1 -p message -e 90 -c 2 -a 0 -i 0 -k MAC
r -t 0.035833639 -s 1 -d -1 -p message -e 32 -c 2 -a 0 -i 0 -k MAC
r -t 0.035833639 -s 2 -d -1 -p message -e 32 -c 2 -a 0 -i 0 -k MAC
r -t 0.035833718 -s 4 -d -1 -p message -e 32 -c 2 -a 0 -i 0 -k MAC
r -t 0.035858639 -s 1 -d -1 -p message -e 32 -c 2 -a 0 -i 0 -k RTR
r -t 0.035858639 -s 2 -d -1 -p message -e 32 -c 2 -a 0 -i 0 -k RTR
r -t 0.035858718 -s 4 -d -1 -p message -e 32 -c 2 -a 0 -i 0 -k RTR
+ -t 0.176673288 -s 1 -d -1 -p message -e 32 -c 2 -a 0 -i 1 -k RTR 
- -t 0.176673288 -s 1 -d -1 -p message -e 32 -c 2 -a 0 -i 1 -k RTR
h -t 0.176673288 -s 1 -d -1 -p message -e 32 -c 2 -a 0 -i 1 -k RTR
+ -t 0.177108288 -s 1 -d -1 -p message -e 90 -c 2 -a 0 -i 1 -k MAC 
- -t 0.177108288 -s 1 -d -1 -p message -e 90 -c 2 -a 0 -i 1 -k MAC
h -t 0.177108288 -s 1 -d -1 -p message -e 90 -c 2 -a 0 -i 1 -k MAC
r -t 0.177828955 -s 0 -d -1 -p message -e 32 -c 2 -a 0 -i 1 -k MAC
r -t 0.177828955 -s 5 -d -1 -p message -e 32 -c 2 -a 0 -i 1 -k MAC
r -t 0.177829034 -s 4 -d -1 -p message -e 32 -c 2 -a 0 -i 1 -k MAC
r -t 0.177853955 -s 0 -d -1 -p message -e 32 -c 2 -a 0 -i 1 -k RTR
r -t 0.177853955 -s 5 -d -1 -p message -e 32 -c 2 -a 0 -i 1 -k RTR
r -t 0.177854034 -s 4 -d -1 -p message -e 32 -c 2 -a 0 -i 1 -k RTR
+ -t 0.473440071 -s 6 -d -1 -p message -e 32 -c 2 -a 0 -i 2 -k RTR 
- -t 0.473440071 -s 6 -d -1 -p message -e 32 -c 2 -a 0 -i 2 -k RTR
h -t 0.473440071 -s 6 -d -1 -p message -e 32 -c 2 -a 0 -i 2 -k RTR
+ -t 0.473855071 -s 6 -d -1 -p message -e 90 -c 2 -a 0 -i 2 -k MAC 
- -t 0.473855071 -s 6 -d -1 -p message -e 90 -c 2 -a 0 -i 2 -k MAC
h -t 0.473855071 -s 6 -d -1 -p message -e 90 -c 2 -a 0 -i 2 -k MAC
r -t 0.474575738 -s 3 -d -1 -p message -e 32 -c 2 -a 0 -i 2 -k MAC
r -t 0.474575738 -s 5 -d -1 -p message -e 32 -c 2 -a 0 -i 2 -k MAC
r -t 0.474575816 -s 4 -d -1 -p message -e 32 -c 2 -a 0 -i 2 -k MAC
r -t 0.474600738 -s 3 -d -1 -p message -e 32 -c 2 -a 0 -i 2 -k RTR
r -t 0.474600738 -s 5 -d -1 -p message -e 32 -c 2 -a 0 -i 2 -k RTR
r -t 0.474600816 -s 4 -d -1 -p message -e 32 -c 2 -a 0 -i 2 -k RTR
+ -t 0.629410954 -s 4 -d -1 -p message -e 32 -c 2 -a 0 -i 3 -k RTR 
- -t 0.629410954 -s 4 -d -1 -p message -e 32 -c 2 -a 0 -i 3 -k RTR
h -t 0.629410954 -s 4 -d -1 -p message -e 32 -c 2 -a 0 -i 3 -k RTR
+ -t 0.629505954 -s 4 -d -1 -p message -e 90 -c 2 -a 0 -i 3 -k MAC 
- -t 0.629505954 -s 4 -d -1 -p message -e 90 -c 2 -a 0 -i 3 -k MAC
h -t 0.629505954 -s 4 -d -1 -p message -e 90 -c 2 -a 0 -i 3 -k MAC
r -t 0.630226287 -s 2 -d -1 -p message -e 32 -c 2 -a 0 -i 3 -k MAC
r -t 0.630226287 -s 5 -d -1 -p message -e 32 -c 2 -a 0 -i 3 -k MAC
r -t 0.630226699 -s 1 -d -1 -p message -e 32 -c 2 -a 0 -i 3 -k MAC
r -t 0.630226699 -s 0 -d -1 -p message -e 32 -c 2 -a 0 -i 3 -k MAC
r -t 0.630226699 -s 3 -d -1 -p message -e 32 -c 2 -a 0 -i 3 -k MAC
r -t 0.630226699 -s 6 -d -1 -p message -e 32 -c 2 -a 0 -i 3 -k MAC
r -t 0.630251287 -s 2 -d -1 -p message -e 32 -c 2 -a 0 -i 3 -k RTR
r -t 0.630251287 -s 5 -d -1 -p message -e 32 -c 2 -a 0 -i 3 -k RTR
r -t 0.630251699 -s 1 -d -1 -p message -e 32 -c 2 -a 0 -i 3 -k RTR
r -t 0.630251699 -s 0 -d -1 -p message -e 32 -c 2 -a 0 -i 3 -k RTR
r -t 0.630251699 -s 3 -d -1 -p message -e 32 -c 2 -a 0 -i 3 -k RTR
r -t 0.630251699 -s 6 -d -1 -p message -e 32 -c 2 -a 0 -i 3 -k RTR
+ -t 0.887007923 -s 2 -d -1 -p message -e 32 -c 2 -a 0 -i 4 -k RTR 
- -t 0.887007923 -s 2 -d -1 -p message -e 32 -c 2 -a 0 -i 4 -k RTR
h -t 0.887007923 -s 2 -d -1 -p message -e 32 -c 2 -a 0 -i 4 -k RTR
+ -t 0.887662923 -s 2 -d -1 -p message -e 90 -c 2 -a 0 -i 4 -k MAC 
- -t 0.887662923 -s 2 -d -1 -p message -e 90 -c 2 -a 0 -i 4 -k MAC
h -t 0.887662923 -s 2 -d -1 -p message -e 90 -c 2 -a 0 -i 4 -k MAC
r -t 0.888383257 -s 4 -d -1 -p message -e 32 -c 2 -a 0 -i 4 -k MAC
r -t 0.888383590 -s 0 -d -1 -p message -e 32 -c 2 -a 0 -i 4 -k MAC
r -t 0.888383590 -s 5 -d -1 -p message -e 32 -c 2 -a 0 -i 4 -k MAC
r -t 0.888383590 -s 3 -d -1 -p message -e 32 -c 2 -a 0 -i 4 -k MAC
r -t 0.888408257 -s 4 -d -1 -p message -e 32 -c 2 -a 0 -i 4 -k RTR
r -t 0.888408590 -s 0 -d -1 -p message -e 32 -c 2 -a 0 -i 4 -k RTR
r -t 0.888408590 -s 5 -d -1 -p message -e 32 -c 2 -a 0 -i 4 -k RTR
r -t 0.888408590 -s 3 -d -1 -p message -e 32 -c 2 -a 0 -i 4 -k RTR
+ -t 1.600482502 -s 3 -d -1 -p message -e 32 -c 2 -a 0 -i 5 -k RTR 
- -t 1.600482502 -s 3 -d -1 -p message -e 32 -c 2 -a 0 -i 5 -k RTR
h -t 1.600482502 -s 3 -d -1 -p message -e 32 -c 2 -a 0 -i 5 -k RTR
+ -t 1.600597502 -s 3 -d -1 -p message -e 90 -c 2 -a 0 -i 5 -k MAC 
- -t 1.600597502 -s 3 -d -1 -p message -e 90 -c 2 -a 0 -i 5 -k MAC
h -t 1.600597502 -s 3 -d -1 -p message -e 90 -c 2 -a 0 -i 5 -k MAC
r -t 1.601318168 -s 2 -d -1 -p message -e 32 -c 2 -a 0 -i 5 -k MAC
r -t 1.601318168 -s 6 -d -1 -p message -e 32 -c 2 -a 0 -i 5 -k MAC
r -t 1.601318247 -s 4 -d -1 -p message -e 32 -c 2 -a 0 -i 5 -k MAC
r -t 1.601343168 -s 2 -d -1 -p message -e 32 -c 2 -a 0 -i 5 -k RTR
r -t 1.601343168 -s 6 -d -1 -p message -e 32 -c 2 -a 0 -i 5 -k RTR
r -t 1.601343247 -s 4 -d -1 -p message -e 32 -c 2 -a 0 -i 5 -k RTR
+ -t 1.640574422 -s 5 -d -1 -p message -e 32 -c 2 -a 0 -i 6 -k RTR 
- -t 1.640574422 -s 5 -d -1 -p message -e 32 -c 2 -a 0 -i 6 -k RTR
h -t 1.640574422 -s 5 -d -1 -p message -e 32 -c 2 -a 0 -i 6 -k RTR
+ -t 1.640729422 -s 5 -d -1 -p message -e 90 -c 2 -a 0 -i 6 -k MAC 
- -t 1.640729422 -s 5 -d -1 -p message -e 90 -c 2 -a 0 -i 6 -k MAC
h -t 1.640729422 -s 5 -d -1 -p message -e 90 -c 2 -a 0 -i 6 -k MAC
r -t 1.641449755 -s 4 -d -1 -p message -e 32 -c 2 -a 0 -i 6 -k MAC
r -t 1.641450088 -s 2 -d -1 -p message -e 32 -c 2 -a 0 -i 6 -k MAC
r -t 1.641450088 -s 1 -d -1 -p message -e 32 -c 2 -a 0 -i 6 -k MAC
r -t 1.641450088 -s 6 -d -1 -p message -e 32 -c 2 -a 0 -i 6 -k MAC
r -t 1.641474755 -s 4 -d -1 -p message -e 32 -c 2 -a 0 -i 6 -k RTR
r -t 1.641475088 -s 2 -d -1 -p message -e 32 -c 2 -a 0 -i 6 -k RTR
r -t 1.641475088 -s 1 -d -1 -p message -e 32 -c 2 -a 0 -i 6 -k RTR
r -t 1.641475088 -s 6 -d -1 -p message -e 32 -c 2 -a 0 -i 6 -k RTR
+ -t 3.000000000 -s 0 -d -1 -p tcp -e 40 -c 2 -a 0 -i 7 -k AGT 
- -t 3.000000000 -s 0 -d -1 -p tcp -e 40 -c 2 -a 0 -i 7 -k AGT
h -t 3.000000000 -s 0 -d -1 -p tcp -e 40 -c 2 -a 0 -i 7 -k AGT
+ -t 3.000000000 -s 1 -d -1 -p tcp -e 40 -c 2 -a 0 -i 8 -k AGT 
- -t 3.000000000 -s 1 -d -1 -p tcp -e 40 -c 2 -a 0 -i 8 -k AGT
h -t 3.000000000 -s 1 -d -1 -p tcp -e 40 -c 2 -a 0 -i 8 -k AGT
+ -t 6.000000000 -s 0 -d -1 -p tcp -e 40 -c 2 -a 0 -i 9 -k AGT 
- -t 6.000000000 -s 0 -d -1 -p tcp -e 40 -c 2 -a 0 -i 9 -k AGT
h -t 6.000000000 -s 0 -d -1 -p tcp -e 40 -c 2 -a 0 -i 9 -k AGT
+ -t 6.000000000 -s 1 -d -1 -p tcp -e 40 -c 2 -a 0 -i 10 -k AGT 
- -t 6.000000000 -s 1 -d -1 -p tcp -e 40 -c 2 -a 0 -i 10 -k AGT
h -t 6.000000000 -s 1 -d -1 -p tcp -e 40 -c 2 -a 0 -i 10 -k AGT
+ -t 12.000000000 -s 0 -d -1 -p tcp -e 40 -c 2 -a 0 -i 11 -k AGT 
- -t 12.000000000 -s 0 -d -1 -p tcp -e 40 -c 2 -a 0 -i 11 -k AGT
h -t 12.000000000 -s 0 -d -1 -p tcp -e 40 -c 2 -a 0 -i 11 -k AGT
+ -t 12.000000000 -s 1 -d -1 -p tcp -e 40 -c 2 -a 0 -i 12 -k AGT 
- -t 12.000000000 -s 1 -d -1 -p tcp -e 40 -c 2 -a 0 -i 12 -k AGT
h -t 12.000000000 -s 1 -d -1 -p tcp -e 40 -c 2 -a 0 -i 12 -k AGT
+ -t 12.037732292 -s 2 -d -1 -p message -e 32 -c 2 -a 0 -i 14 -k RTR 
- -t 12.037732292 -s 2 -d -1 -p message -e 32 -c 2 -a 0 -i 14 -k RTR
h -t 12.037732292 -s 2 -d -1 -p message -e 32 -c 2 -a 0 -i 14 -k RTR
+ -t 12.038027292 -s 2 -d -1 -p message -e 90 -c 2 -a 0 -i 14 -k MAC 
- -t 12.038027292 -s 2 -d -1 -p message -e 90 -c 2 -a 0 -i 14 -k MAC
h -t 12.038027292 -s 2 -d -1 -p message -e 90 -c 2 -a 0 -i 14 -k MAC
r -t 12.038747625 -s 4 -d -1 -p message -e 32 -c 2 -a 0 -i 14 -k MAC
r -t 12.038747958 -s 0 -d -1 -p message -e 32 -c 2 -a 0 -i 14 -k MAC
r -t 12.038747958 -s 5 -d -1 -p message -e 32 -c 2 -a 0 -i 14 -k MAC
r -t 12.038747958 -s 3 -d -1 -p message -e 32 -c 2 -a 0 -i 14 -k MAC
r -t 12.038772625 -s 4 -d -1 -p message -e 32 -c 2 -a 0 -i 14 -k RTR
r -t 12.038772958 -s 0 -d -1 -p message -e 32 -c 2 -a 0 -i 14 -k RTR
r -t 12.038772958 -s 5 -d -1 -p message -e 32 -c 2 -a 0 -i 14 -k RTR
r -t 12.038772958 -s 3 -d -1 -p message -e 32 -c 2 -a 0 -i 14 -k RTR
+ -t 12.039900715 -s 1 -d -1 -p message -e 32 -c 2 -a 0 -i 13 -k RTR 
- -t 12.039900715 -s 1 -d -1 -p message -e 32 -c 2 -a 0 -i 13 -k RTR
h -t 12.039900715 -s 1 -d -1 -p message -e 32 -c 2 -a 0 -i 13 -k RTR
+ -t 12.040555715 -s 1 -d -1 -p message -e 90 -c 2 -a 0 -i 13 -k MAC 
- -t 12.040555715 -s 1 -d -1 -p message -e 90 -c 2 -a 0 -i 13 -k MAC
h -t 12.040555715 -s 1 -d -1 -p message -e 90 -c 2 -a 0 -i 13 -k MAC
r -t 12.041276381 -s 0 -d -1 -p message -e 32 -c 2 -a 0 -i 13 -k MAC
r -t 12.041276381 -s 5 -d -1 -p message -e 32 -c 2 -a 0 -i 13 -k MAC
r -t 12.041276460 -s 4 -d -1 -p message -e 32 -c 2 -a 0 -i 13 -k MAC
r -t 12.041301381 -s 0 -d -1 -p message -e 32 -c 2 -a 0 -i 13 -k RTR
r -t 12.041301381 -s 5 -d -1 -p message -e 32 -c 2 -a 0 -i 13 -k RTR
r -t 12.041301460 -s 4 -d -1 -p message -e 32 -c 2 -a 0 -i 13 -k RTR
+ -t 12.044733154 -s 4 -d -1 -p message -e 32 -c 2 -a 0 -i 15 -k RTR 
- -t 12.044733154 -s 4 -d -1 -p message -e 32 -c 2 -a 0 -i 15 -k RTR
h -t 12.044733154 -s 4 -d -1 -p message -e 32 -c 2 -a 0 -i 15 -k RTR
+ -t 12.044928154 -s 4 -d -1 -p message -e 90 -c 2 -a 0 -i 15 -k MAC 
- -t 12.044928154 -s 4 -d -1 -p message -e 90 -c 2 -a 0 -i 15 -k MAC
h -t 12.044928154 -s 4 -d -1 -p message -e 90 -c 2 -a 0 -i 15 -k MAC
r -t 12.045648487 -s 2 -d -1 -p message -e 32 -c 2 -a 0 -i 15 -k MAC
r -t 12.045648487 -s 5 -d -1 -p message -e 32 -c 2 -a 0 -i 15 -k MAC
r -t 12.045648899 -s 1 -d -1 -p message -e 32 -c 2 -a 0 -i 15 -k MAC
r -t 12.045648899 -s 0 -d -1 -p message -e 32 -c 2 -a 0 -i 15 -k MAC
r -t 12.045648899 -s 3 -d -1 -p message -e 32 -c 2 -a 0 -i 15 -k MAC
r -t 12.045648899 -s 6 -d -1 -p message -e 32 -c 2 -a 0 -i 15 -k MAC
r -t 12.045673487 -s 2 -d -1 -p message -e 32 -c 2 -a 0 -i 15 -k RTR
r -t 12.045673487 -s 5 -d -1 -p message -e 32 -c 2 -a 0 -i 15 -k RTR
r -t 12.045673899 -s 1 -d -1 -p message -e 32 -c 2 -a 0 -i 15 -k RTR
r -t 12.045673899 -s 0 -d -1 -p message -e 32 -c 2 -a 0 -i 15 -k RTR
r -t 12.045673899 -s 3 -d -1 -p message -e 32 -c 2 -a 0 -i 15 -k RTR
r -t 12.045673899 -s 6 -d -1 -p message -e 32 -c 2 -a 0 -i 15 -k RTR
+ -t 12.179084990 -s 5 -d -1 -p message -e 32 -c 2 -a 0 -i 17 -k RTR 
- -t 12.179084990 -s 5 -d -1 -p message -e 32 -c 2 -a 0 -i 17 -k RTR
h -t 12.179084990 -s 5 -d -1 -p message -e 32 -c 2 -a 0 -i 17 -k RTR
+ -t 12.179339990 -s 5 -d -1 -p message -e 90 -c 2 -a 0 -i 17 -k MAC 
- -t 12.179339990 -s 5 -d -1 -p message -e 90 -c 2 -a 0 -i 17 -k MAC
h -t 12.179339990 -s 5 -d -1 -p message -e 90 -c 2 -a 0 -i 17 -k MAC
r -t 12.180060323 -s 4 -d -1 -p message -e 32 -c 2 -a 0 -i 17 -k MAC
r -t 12.180060656 -s 2 -d -1 -p message -e 32 -c 2 -a 0 -i 17 -k MAC
r -t 12.180060656 -s 1 -d -1 -p message -e 32 -c 2 -a 0 -i 17 -k MAC
r -t 12.180060656 -s 6 -d -1 -p message -e 32 -c 2 -a 0 -i 17 -k MAC
r -t 12.180085323 -s 4 -d -1 -p message -e 32 -c 2 -a 0 -i 17 -k RTR
r -t 12.180085656 -s 2 -d -1 -p message -e 32 -c 2 -a 0 -i 17 -k RTR
r -t 12.180085656 -s 1 -d -1 -p message -e 32 -c 2 -a 0 -i 17 -k RTR
r -t 12.180085656 -s 6 -d -1 -p message -e 32 -c 2 -a 0 -i 17 -k RTR
+ -t 12.181210582 -s 0 -d -1 -p message -e 32 -c 2 -a 0 -i 16 -k RTR 
- -t 12.181210582 -s 0 -d -1 -p message -e 32 -c 2 -a 0 -i 16 -k RTR
h -t 12.181210582 -s 0 -d -1 -p message -e 32 -c 2 -a 0 -i 16 -k RTR
+ -t 12.181765582 -s 0 -d -1 -p message -e 90 -c 2 -a 0 -i 16 -k MAC 
- -t 12.181765582 -s 0 -d -1 -p message -e 90 -c 2 -a 0 -i 16 -k MAC
h -t 12.181765582 -s 0 -d -1 -p message -e 90 -c 2 -a 0 -i 16 -k MAC
r -t 12.182486249 -s 1 -d -1 -p message -e 32 -c 2 -a 0 -i 16 -k MAC
r -t 12.182486249 -s 2 -d -1 -p message -e 32 -c 2 -a 0 -i 16 -k MAC
r -t 12.182486328 -s 4 -d -1 -p message -e 32 -c 2 -a 0 -i 16 -k MAC
r -t 12.182511249 -s 1 -d -1 -p message -e 32 -c 2 -a 0 -i 16 -k RTR
r -t 12.182511249 -s 2 -d -1 -p message -e 32 -c 2 -a 0 -i 16 -k RTR
r -t 12.182511328 -s 4 -d -1 -p message -e 32 -c 2 -a 0 -i 16 -k RTR
+ -t 12.383489762 -s 6 -d -1 -p message -e 32 -c 2 -a 0 -i 18 -k RTR 
- -t 12.383489762 -s 6 -d -1 -p message -e 32 -c 2 -a 0 -i 18 -k RTR
h -t 12.383489762 -s 6 -d -1 -p message -e 32 -c 2 -a 0 -i 18 -k RTR
+ -t 12.383724762 -s 6 -d -1 -p message -e 90 -c 2 -a 0 -i 18 -k MAC 
- -t 12.383724762 -s 6 -d -1 -p message -e 90 -c 2 -a 0 -i 18 -k MAC
h -t 12.383724762 -s 6 -d -1 -p message -e 90 -c 2 -a 0 -i 18 -k MAC
r -t 12.384445429 -s 3 -d -1 -p message -e 32 -c 2 -a 0 -i 18 -k MAC
r -t 12.384445429 -s 5 -d -1 -p message -e 32 -c 2 -a 0 -i 18 -k MAC
r -t 12.384445508 -s 4 -d -1 -p message -e 32 -c 2 -a 0 -i 18 -k MAC
r -t 12.384470429 -s 3 -d -1 -p message -e 32 -c 2 -a 0 -i 18 -k RTR
r -t 12.384470429 -s 5 -d -1 -p message -e 32 -c 2 -a 0 -i 18 -k RTR
r -t 12.384470508 -s 4 -d -1 -p message -e 32 -c 2 -a 0 -i 18 -k RTR
+ -t 12.437731363 -s 0 -d -1 -p message -e 44 -c 2 -a 0 -i 19 -k RTR 
- -t 12.437731363 -s 0 -d -1 -p message -e 44 -c 2 -a 0 -i 19 -k RTR
h -t 12.437731363 -s 0 -d -1 -p message -e 44 -c 2 -a 0 -i 19 -k RTR
+ -t 12.437806363 -s 0 -d -1 -p message -e 102 -c 2 -a 0 -i 19 -k MAC 
- -t 12.437806363 -s 0 -d -1 -p message -e 102 -c 2 -a 0 -i 19 -k MAC
h -t 12.437806363 -s 0 -d -1 -p message -e 102 -c 2 -a 0 -i 19 -k MAC
r -t 12.438623030 -s 1 -d -1 -p message -e 44 -c 2 -a 0 -i 19 -k MAC
r -t 12.438623030 -s 2 -d -1 -p message -e 44 -c 2 -a 0 -i 19 -k MAC
r -t 12.438623108 -s 4 -d -1 -p message -e 44 -c 2 -a 0 -i 19 -k MAC
r -t 12.438648030 -s 1 -d -1 -p message -e 44 -c 2 -a 0 -i 19 -k RTR
r -t 12.438648030 -s 2 -d -1 -p message -e 44 -c 2 -a 0 -i 19 -k RTR
r -t 12.438648108 -s 4 -d -1 -p message -e 44 -c 2 -a 0 -i 19 -k RTR
+ -t 12.639719861 -s 3 -d -1 -p message -e 32 -c 2 -a 0 -i 21 -k RTR 
- -t 12.639719861 -s 3 -d -1 -p message -e 32 -c 2 -a 0 -i 21 -k RTR
h -t 12.639719861 -s 3 -d -1 -p message -e 32 -c 2 -a 0 -i 21 -k RTR
+ -t 12.640074861 -s 3 -d -1 -p message -e 90 -c 2 -a 0 -i 21 -k MAC 
- -t 12.640074861 -s 3 -d -1 -p message -e 90 -c 2 -a 0 -i 21 -k MAC
h -t 12.640074861 -s 3 -d -1 -p message -e 90 -c 2 -a 0 -i 21 -k MAC
r -t 12.640795527 -s 2 -d -1 -p message -e 32 -c 2 -a 0 -i 21 -k MAC
r -t 12.640795527 -s 6 -d -1 -p message -e 32 -c 2 -a 0 -i 21 -k MAC
r -t 12.640795606 -s 4 -d -1 -p message -e 32 -c 2 -a 0 -i 21 -k MAC
r -t 12.640820527 -s 2 -d -1 -p message -e 32 -c 2 -a 0 -i 21 -k RTR
r -t 12.640820527 -s 6 -d -1 -p message -e 32 -c 2 -a 0 -i 21 -k RTR
r -t 12.640820606 -s 4 -d -1 -p message -e 32 -c 2 -a 0 -i 21 -k RTR
+ -t 12.850702724 -s 4 -d -1 -p message -e 44 -c 2 -a 0 -i 22 -k RTR 
- -t 12.850702724 -s 4 -d -1 -p message -e 44 -c 2 -a 0 -i 22 -k RTR
h -t 12.850702724 -s 4 -d -1 -p message -e 44 -c 2 -a 0 -i 22 -k RTR
+ -t 12.850897724 -s 4 -d -1 -p message -e 102 -c 2 -a 0 -i 22 -k MAC 
- -t 12.850897724 -s 4 -d -1 -p message -e 102 -c 2 -a 0 -i 22 -k MAC
h -t 12.850897724 -s 4 -d -1 -p message -e 102 -c 2 -a 0 -i 22 -k MAC
r -t 12.851714057 -s 2 -d -1 -p message -e 44 -c 2 -a 0 -i 22 -k MAC
r -t 12.851714057 -s 5 -d -1 -p message -e 44 -c 2 -a 0 -i 22 -k MAC
r -t 12.851714469 -s 1 -d -1 -p message -e 44 -c 2 -a 0 -i 22 -k MAC
r -t 12.851714469 -s 0 -d -1 -p message -e 44 -c 2 -a 0 -i 22 -k MAC
r -t 12.851714469 -s 3 -d -1 -p message -e 44 -c 2 -a 0 -i 22 -k MAC
r -t 12.851714469 -s 6 -d -1 -p message -e 44 -c 2 -a 0 -i 22 -k MAC
r -t 12.851739057 -s 2 -d -1 -p message -e 44 -c 2 -a 0 -i 22 -k RTR
r -t 12.851739057 -s 5 -d -1 -p message -e 44 -c 2 -a 0 -i 22 -k RTR
r -t 12.851739469 -s 1 -d -1 -p message -e 44 -c 2 -a 0 -i 22 -k RTR
r -t 12.851739469 -s 0 -d -1 -p message -e 44 -c 2 -a 0 -i 22 -k RTR
r -t 12.851739469 -s 3 -d -1 -p message -e 44 -c 2 -a 0 -i 22 -k RTR
r -t 12.851739469 -s 6 -d -1 -p message -e 44 -c 2 -a 0 -i 22 -k RTR
+ -t 13.182771172 -s 5 -d -1 -p message -e 44 -c 2 -a 0 -i 25 -k RTR 
- -t 13.182771172 -s 5 -d -1 -p message -e 44 -c 2 -a 0 -i 25 -k RTR
h -t 13.182771172 -s 5 -d -1 -p message -e 44 -c 2 -a 0 -i 25 -k RTR
+ -t 13.183306172 -s 5 -d -1 -p message -e 102 -c 2 -a 0 -i 25 -k MAC 
- -t 13.183306172 -s 5 -d -1 -p message -e 102 -c 2 -a 0 -i 25 -k MAC
h -t 13.183306172 -s 5 -d -1 -p message -e 102 -c 2 -a 0 -i 25 -k MAC
r -t 13.184122505 -s 4 -d -1 -p message -e 44 -c 2 -a 0 -i 25 -k MAC
r -t 13.184122839 -s 2 -d -1 -p message -e 44 -c 2 -a 0 -i 25 -k MAC
r -t 13.184122839 -s 1 -d -1 -p message -e 44 -c 2 -a 0 -i 25 -k MAC
r -t 13.184122839 -s 6 -d -1 -p message -e 44 -c 2 -a 0 -i 25 -k MAC
r -t 13.184147505 -s 4 -d -1 -p message -e 44 -c 2 -a 0 -i 25 -k RTR
r -t 13.184147839 -s 2 -d -1 -p message -e 44 -c 2 -a 0 -i 25 -k RTR
r -t 13.184147839 -s 1 -d -1 -p message -e 44 -c 2 -a 0 -i 25 -k RTR
r -t 13.184147839 -s 6 -d -1 -p message -e 44 -c 2 -a 0 -i 25 -k RTR
+ -t 13.442784774 -s 0 -d -1 -p message -e 32 -c 2 -a 0 -i 27 -k RTR 
- -t 13.442784774 -s 0 -d -1 -p message -e 32 -c 2 -a 0 -i 27 -k RTR
h -t 13.442784774 -s 0 -d -1 -p message -e 32 -c 2 -a 0 -i 27 -k RTR
+ -t 13.442959774 -s 0 -d -1 -p message -e 90 -c 2 -a 0 -i 27 -k MAC 
- -t 13.442959774 -s 0 -d -1 -p message -e 90 -c 2 -a 0 -i 27 -k MAC
h -t 13.442959774 -s 0 -d -1 -p message -e 90 -c 2 -a 0 -i 27 -k MAC
r -t 13.443680440 -s 1 -d -1 -p message -e 32 -c 2 -a 0 -i 27 -k MAC
r -t 13.443680440 -s 2 -d -1 -p message -e 32 -c 2 -a 0 -i 27 -k MAC
r -t 13.443680519 -s 4 -d -1 -p message -e 32 -c 2 -a 0 -i 27 -k MAC
r -t 13.443705440 -s 1 -d -1 -p message -e 32 -c 2 -a 0 -i 27 -k RTR
r -t 13.443705440 -s 2 -d -1 -p message -e 32 -c 2 -a 0 -i 27 -k RTR
r -t 13.443705519 -s 4 -d -1 -p message -e 32 -c 2 -a 0 -i 27 -k RTR
+ -t 13.602225170 -s 2 -d -1 -p message -e 32 -c 2 -a 0 -i 28 -k RTR 
- -t 13.602225170 -s 2 -d -1 -p message -e 32 -c 2 -a 0 -i 28 -k RTR
h -t 13.602225170 -s 2 -d -1 -p message -e 32 -c 2 -a 0 -i 28 -k RTR
+ -t 13.602360170 -s 2 -d -1 -p message -e 90 -c 2 -a 0 -i 28 -k MAC 
- -t 13.602360170 -s 2 -d -1 -p message -e 90 -c 2 -a 0 -i 28 -k MAC
h -t 13.602360170 -s 2 -d -1 -p message -e 90 -c 2 -a 0 -i 28 -k MAC
r -t 13.603080503 -s 4 -d -1 -p message -e 32 -c 2 -a 0 -i 28 -k MAC
r -t 13.603080836 -s 0 -d -1 -p message -e 32 -c 2 -a 0 -i 28 -k MAC
r -t 13.603080836 -s 5 -d -1 -p message -e 32 -c 2 -a 0 -i 28 -k MAC
r -t 13.603080836 -s 3 -d -1 -p message -e 32 -c 2 -a 0 -i 28 -k MAC
r -t 13.603105503 -s 4 -d -1 -p message -e 32 -c 2 -a 0 -i 28 -k RTR
r -t 13.603105836 -s 0 -d -1 -p message -e 32 -c 2 -a 0 -i 28 -k RTR
+ -t 13.603105836 -s 0 -d 2 -p tcp -e 80 -c 2 -a 0 -i 7 -k RTR 
- -t 13.603105836 -s 0 -d 2 -p tcp -e 80 -c 2 -a 0 -i 7 -k RTR
h -t 13.603105836 -s 0 -d 2 -p tcp -e 80 -c 2 -a 0 -i 7 -k RTR
+ -t 13.603105836 -s 0 -d 2 -p tcp -e 80 -c 2 -a 0 -i 9 -k RTR 
- -t 13.603105836 -s 0 -d 2 -p tcp -e 80 -c 2 -a 0 -i 9 -k RTR
h -t 13.603105836 -s 0 -d 2 -p tcp -e 80 -c 2 -a 0 -i 9 -k RTR
d -t 13.603105836 -s 0 -d 2 -p tcp -e 80 -c 2 -a 0 -i 7 -k IFQ
+ -t 13.603105836 -s 0 -d 2 -p tcp -e 80 -c 2 -a 0 -i 11 -k RTR 
- -t 13.603105836 -s 0 -d 2 -p tcp -e 80 -c 2 -a 0 -i 11 -k RTR
h -t 13.603105836 -s 0 -d 2 -p tcp -e 80 -c 2 -a 0 -i 11 -k RTR
d -t 13.603105836 -s 0 -d 2 -p tcp -e 80 -c 2 -a 0 -i 9 -k IFQ
r -t 13.603105836 -s 5 -d -1 -p message -e 32 -c 2 -a 0 -i 28 -k RTR
r -t 13.603105836 -s 3 -d -1 -p message -e 32 -c 2 -a 0 -i 28 -k RTR
+ -t 13.603760836 -s 0 -d -1 -p ARP -e 86 -c 2 -a 0 -i 0 -k MAC 
- -t 13.603760836 -s 0 -d -1 -p ARP -e 86 -c 2 -a 0 -i 0 -k MAC
h -t 13.603760836 -s 0 -d -1 -p ARP -e 86 -c 2 -a 0 -i 0 -k MAC
r -t 13.604449503 -s 1 -d -1 -p ARP -e 28 -c 2 -a 0 -i 0 -k MAC
r -t 13.604449503 -s 2 -d -1 -p ARP -e 28 -c 2 -a 0 -i 0 -k MAC
r -t 13.604449582 -s 4 -d -1 -p ARP -e 28 -c 2 -a 0 -i 0 -k MAC
+ -t 13.604564503 -s 2 -d -1 -p RTS -e 44 -c 2 -a 0 -i 0 -k MAC 
- -t 13.604564503 -s 2 -d -1 -p RTS -e 44 -c 2 -a 0 -i 0 -k MAC
h -t 13.604564503 -s 2 -d -1 -p RTS -e 44 -c 2 -a 0 -i 0 -k MAC
r -t 13.604917170 -s 0 -d -1 -p RTS -e 44 -c 2 -a 0 -i 0 -k MAC
+ -t 13.604927170 -s 0 -d -1 -p CTS -e 38 -c 2 -a 0 -i 0 -k MAC 
- -t 13.604927170 -s 0 -d -1 -p CTS -e 38 -c 2 -a 0 -i 0 -k MAC
h -t 13.604927170 -s 0 -d -1 -p CTS -e 38 -c 2 -a 0 -i 0 -k MAC
r -t 13.605231836 -s 2 -d -1 -p CTS -e 38 -c 2 -a 0 -i 0 -k MAC
+ -t 13.605241836 -s 2 -d -1 -p ARP -e 86 -c 2 -a 0 -i 0 -k MAC 
- -t 13.605241836 -s 2 -d -1 -p ARP -e 86 -c 2 -a 0 -i 0 -k MAC
h -t 13.605241836 -s 2 -d -1 -p ARP -e 86 -c 2 -a 0 -i 0 -k MAC
r -t 13.605930503 -s 0 -d -1 -p ARP -e 28 -c 2 -a 0 -i 0 -k MAC
+ -t 13.605940503 -s 0 -d -1 -p ACK -e 38 -c 2 -a 0 -i 0 -k MAC 
- -t 13.605940503 -s 0 -d -1 -p ACK -e 38 -c 2 -a 0 -i 0 -k MAC
h -t 13.605940503 -s 0 -d -1 -p ACK -e 38 -c 2 -a 0 -i 0 -k MAC
r -t 13.606245170 -s 2 -d -1 -p ACK -e 38 -c 2 -a 0 -i 0 -k MAC
+ -t 13.606354503 -s 0 -d -1 -p ARP -e 86 -c 2 -a 0 -i 0 -k MAC 
- -t 13.606354503 -s 0 -d -1 -p ARP -e 86 -c 2 -a 0 -i 0 -k MAC
h -t 13.606354503 -s 0 -d -1 -p ARP -e 86 -c 2 -a 0 -i 0 -k MAC
r -t 13.607043170 -s 1 -d -1 -p ARP -e 28 -c 2 -a 0 -i 0 -k MAC
r -t 13.607043170 -s 2 -d -1 -p ARP -e 28 -c 2 -a 0 -i 0 -k MAC
r -t 13.607043248 -s 4 -d -1 -p ARP -e 28 -c 2 -a 0 -i 0 -k MAC
+ -t 13.607212503 -s 0 -d -1 -p ARP -e 86 -c 2 -a 0 -i 0 -k MAC 
- -t 13.607212503 -s 0 -d -1 -p ARP -e 86 -c 2 -a 0 -i 0 -k MAC
h -t 13.607212503 -s 0 -d -1 -p ARP -e 86 -c 2 -a 0 -i 0 -k MAC
r -t 13.607901170 -s 1 -d -1 -p ARP -e 28 -c 2 -a 0 -i 0 -k MAC
r -t 13.607901170 -s 2 -d -1 -p ARP -e 28 -c 2 -a 0 -i 0 -k MAC
r -t 13.607901248 -s 4 -d -1 -p ARP -e 28 -c 2 -a 0 -i 0 -k MAC
+ -t 13.608371170 -s 2 -d -1 -p RTS -e 44 -c 2 -a 0 -i 0 -k MAC 
- -t 13.608371170 -s 2 -d -1 -p RTS -e 44 -c 2 -a 0 -i 0 -k MAC
h -t 13.608371170 -s 2 -d -1 -p RTS -e 44 -c 2 -a 0 -i 0 -k MAC
r -t 13.608723836 -s 0 -d -1 -p RTS -e 44 -c 2 -a 0 -i 0 -k MAC
+ -t 13.608733836 -s 0 -d -1 -p CTS -e 38 -c 2 -a 0 -i 0 -k MAC 
- -t 13.608733836 -s 0 -d -1 -p CTS -e 38 -c 2 -a 0 -i 0 -k MAC
h -t 13.608733836 -s 0 -d -1 -p CTS -e 38 -c 2 -a 0 -i 0 -k MAC
r -t 13.609038503 -s 2 -d -1 -p CTS -e 38 -c 2 -a 0 -i 0 -k MAC
+ -t 13.609048503 -s 2 -d -1 -p ARP -e 86 -c 2 -a 0 -i 0 -k MAC 
- -t 13.609048503 -s 2 -d -1 -p ARP -e 86 -c 2 -a 0 -i 0 -k MAC
h -t 13.609048503 -s 2 -d -1 -p ARP -e 86 -c 2 -a 0 -i 0 -k MAC
+ -t 13.609487170 -s 6 -d -1 -p message -e 32 -c 2 -a 0 -i 29 -k RTR 
- -t 13.609487170 -s 6 -d -1 -p message -e 32 -c 2 -a 0 -i 29 -k RTR
h -t 13.609487170 -s 6 -d -1 -p message -e 32 -c 2 -a 0 -i 29 -k RTR
r -t 13.609737170 -s 0 -d -1 -p ARP -e 28 -c 2 -a 0 -i 0 -k MAC
+ -t 13.609747170 -s 0 -d -1 -p ACK -e 38 -c 2 -a 0 -i 0 -k MAC 
- -t 13.609747170 -s 0 -d -1 -p ACK -e 38 -c 2 -a 0 -i 0 -k MAC
h -t 13.609747170 -s 0 -d -1 -p ACK -e 38 -c 2 -a 0 -i 0 -k MAC
r -t 13.610051836 -s 2 -d -1 -p ACK -e 38 -c 2 -a 0 -i 0 -k MAC
+ -t 13.610281170 -s 0 -d -1 -p RTS -e 44 -c 2 -a 0 -i 0 -k MAC 
- -t 13.610281170 -s 0 -d -1 -p RTS -e 44 -c 2 -a 0 -i 0 -k MAC
h -t 13.610281170 -s 0 -d -1 -p RTS -e 44 -c 2 -a 0 -i 0 -k MAC
r -t 13.610633836 -s 2 -d -1 -p RTS -e 44 -c 2 -a 0 -i 0 -k MAC
+ -t 13.610643836 -s 2 -d -1 -p CTS -e 38 -c 2 -a 0 -i 0 -k MAC 
- -t 13.610643836 -s 2 -d -1 -p CTS -e 38 -c 2 -a 0 -i 0 -k MAC
h -t 13.610643836 -s 2 -d -1 -p CTS -e 38 -c 2 -a 0 -i 0 -k MAC
r -t 13.610948503 -s 0 -d -1 -p CTS -e 38 -c 2 -a 0 -i 0 -k MAC
+ -t 13.610958503 -s 0 -d 2 -p tcp -e 138 -c 2 -a 0 -i 11 -k MAC 
- -t 13.610958503 -s 0 -d 2 -p tcp -e 138 -c 2 -a 0 -i 11 -k MAC
h -t 13.610958503 -s 0 -d 2 -p tcp -e 138 -c 2 -a 0 -i 11 -k MAC
r -t 13.612063170 -s 2 -d 2 -p tcp -e 80 -c 2 -a 0 -i 11 -k MAC
+ -t 13.612073170 -s 2 -d -1 -p ACK -e 38 -c 2 -a 0 -i 0 -k MAC 
- -t 13.612073170 -s 2 -d -1 -p ACK -e 38 -c 2 -a 0 -i 0 -k MAC
h -t 13.612073170 -s 2 -d -1 -p ACK -e 38 -c 2 -a 0 -i 0 -k MAC
+ -t 13.612088170 -s 2 -d 3 -p tcp -e 80 -c 2 -a 0 -i 11 -k RTR 
- -t 13.612088170 -s 2 -d 3 -p tcp -e 80 -c 2 -a 0 -i 11 -k RTR
h -t 13.612088170 -s 2 -d 3 -p tcp -e 80 -c 2 -a 0 -i 11 -k RTR
r -t 13.612377836 -s 0 -d -1 -p ACK -e 38 -c 2 -a 0 -i 0 -k MAC
+ -t 13.612787170 -s 2 -d -1 -p RTS -e 44 -c 2 -a 0 -i 0 -k MAC 
- -t 13.612787170 -s 2 -d -1 -p RTS -e 44 -c 2 -a 0 -i 0 -k MAC
h -t 13.612787170 -s 2 -d -1 -p RTS -e 44 -c 2 -a 0 -i 0 -k MAC
r -t 13.613139836 -s 0 -d -1 -p RTS -e 44 -c 2 -a 0 -i 0 -k MAC
+ -t 13.613149836 -s 0 -d -1 -p CTS -e 38 -c 2 -a 0 -i 0 -k MAC 
- -t 13.613149836 -s 0 -d -1 -p CTS -e 38 -c 2 -a 0 -i 0 -k MAC
h -t 13.613149836 -s 0 -d -1 -p CTS -e 38 -c 2 -a 0 -i 0 -k MAC
r -t 13.613454503 -s 2 -d -1 -p CTS -e 38 -c 2 -a 0 -i 0 -k MAC
+ -t 13.613464503 -s 2 -d -1 -p ARP -e 86 -c 2 -a 0 -i 0 -k MAC 
- -t 13.613464503 -s 2 -d -1 -p ARP -e 86 -c 2 -a 0 -i 0 -k MAC
h -t 13.613464503 -s 2 -d -1 -p ARP -e 86 -c 2 -a 0 -i 0 -k MAC
r -t 13.614153170 -s 0 -d -1 -p ARP -e 28 -c 2 -a 0 -i 0 -k MAC
+ -t 13.614163170 -s 0 -d -1 -p ACK -e 38 -c 2 -a 0 -i 0 -k MAC 
- -t 13.614163170 -s 0 -d -1 -p ACK -e 38 -c 2 -a 0 -i 0 -k MAC
h -t 13.614163170 -s 0 -d -1 -p ACK -e 38 -c 2 -a 0 -i 0 -k MAC
r -t 13.614467836 -s 2 -d -1 -p ACK -e 38 -c 2 -a 0 -i 0 -k MAC
+ -t 13.614817836 -s 2 -d -1 -p ARP -e 86 -c 2 -a 0 -i 0 -k MAC 
- -t 13.614817836 -s 2 -d -1 -p ARP -e 86 -c 2 -a 0 -i 0 -k MAC
h -t 13.614817836 -s 2 -d -1 -p ARP -e 86 -c 2 -a 0 -i 0 -k MAC
r -t 13.615506170 -s 4 -d -1 -p ARP -e 28 -c 2 -a 0 -i 0 -k MAC
r -t 13.615506503 -s 0 -d -1 -p ARP -e 28 -c 2 -a 0 -i 0 -k MAC
r -t 13.615506503 -s 5 -d -1 -p ARP -e 28 -c 2 -a 0 -i 0 -k MAC
r -t 13.615506503 -s 3 -d -1 -p ARP -e 28 -c 2 -a 0 -i 0 -k MAC
+ -t 13.615901503 -s 3 -d -1 -p RTS -e 44 -c 2 -a 0 -i 0 -k MAC 
- -t 13.615901503 -s 3 -d -1 -p RTS -e 44 -c 2 -a 0 -i 0 -k MAC
h -t 13.615901503 -s 3 -d -1 -p RTS -e 44 -c 2 -a 0 -i 0 -k MAC
r -t 13.616254170 -s 2 -d -1 -p RTS -e 44 -c 2 -a 0 -i 0 -k MAC
+ -t 13.616264170 -s 2 -d -1 -p CTS -e 38 -c 2 -a 0 -i 0 -k MAC 
- -t 13.616264170 -s 2 -d -1 -p CTS -e 38 -c 2 -a 0 -i 0 -k MAC
h -t 13.616264170 -s 2 -d -1 -p CTS -e 38 -c 2 -a 0 -i 0 -k MAC
r -t 13.616568836 -s 3 -d -1 -p CTS -e 38 -c 2 -a 0 -i 0 -k MAC
+ -t 13.616578836 -s 3 -d -1 -p ARP -e 86 -c 2 -a 0 -i 0 -k MAC 
- -t 13.616578836 -s 3 -d -1 -p ARP -e 86 -c 2 -a 0 -i 0 -k MAC
h -t 13.616578836 -s 3 -d -1 -p ARP -e 86 -c 2 -a 0 -i 0 -k MAC
r -t 13.617267503 -s 2 -d -1 -p ARP -e 28 -c 2 -a 0 -i 0 -k MAC
+ -t 13.617277503 -s 2 -d -1 -p ACK -e 38 -c 2 -a 0 -i 0 -k MAC 
- -t 13.617277503 -s 2 -d -1 -p ACK -e 38 -c 2 -a 0 -i 0 -k MAC
h -t 13.617277503 -s 2 -d -1 -p ACK -e 38 -c 2 -a 0 -i 0 -k MAC
r -t 13.617582170 -s 3 -d -1 -p ACK -e 38 -c 2 -a 0 -i 0 -k MAC
+ -t 13.617671503 -s 2 -d -1 -p RTS -e 44 -c 2 -a 0 -i 0 -k MAC 
- -t 13.617671503 -s 2 -d -1 -p RTS -e 44 -c 2 -a 0 -i 0 -k MAC
h -t 13.617671503 -s 2 -d -1 -p RTS -e 44 -c 2 -a 0 -i 0 -k MAC
r -t 13.618024170 -s 3 -d -1 -p RTS -e 44 -c 2 -a 0 -i 0 -k MAC
+ -t 13.618034170 -s 3 -d -1 -p CTS -e 38 -c 2 -a 0 -i 0 -k MAC 
- -t 13.618034170 -s 3 -d -1 -p CTS -e 38 -c 2 -a 0 -i 0 -k MAC
h -t 13.618034170 -s 3 -d -1 -p CTS -e 38 -c 2 -a 0 -i 0 -k MAC
r -t 13.618338836 -s 2 -d -1 -p CTS -e 38 -c 2 -a 0 -i 0 -k MAC
+ -t 13.618348836 -s 2 -d 3 -p tcp -e 138 -c 2 -a 0 -i 11 -k MAC 
- -t 13.618348836 -s 2 -d 3 -p tcp -e 138 -c 2 -a 0 -i 11 -k MAC
h -t 13.618348836 -s 2 -d 3 -p tcp -e 138 -c 2 -a 0 -i 11 -k MAC
r -t 13.619453503 -s 3 -d 3 -p tcp -e 80 -c 2 -a 0 -i 11 -k MAC
+ -t 13.619463503 -s 3 -d -1 -p ACK -e 38 -c 2 -a 0 -i 0 -k MAC 
- -t 13.619463503 -s 3 -d -1 -p ACK -e 38 -c 2 -a 0 -i 0 -k MAC
h -t 13.619463503 -s 3 -d -1 -p ACK -e 38 -c 2 -a 0 -i 0 -k MAC
r -t 13.619478503 -s 3 -d 3 -p tcp -e 80 -c 2 -a 0 -i 11 -k AGT
+ -t 13.619478503 -s 3 -d -1 -p ack -e 40 -c 2 -a 0 -i 30 -k AGT 
- -t 13.619478503 -s 3 -d -1 -p ack -e 40 -c 2 -a 0 -i 30 -k AGT
h -t 13.619478503 -s 3 -d -1 -p ack -e 40 -c 2 -a 0 -i 30 -k AGT
+ -t 13.619478503 -s 3 -d 2 -p ack -e 60 -c 2 -a 0 -i 30 -k RTR 
- -t 13.619478503 -s 3 -d 2 -p ack -e 60 -c 2 -a 0 -i 30 -k RTR
h -t 13.619478503 -s 3 -d 2 -p ack -e 60 -c 2 -a 0 -i 30 -k RTR
r -t 13.619768170 -s 2 -d -1 -p ACK -e 38 -c 2 -a 0 -i 0 -k MAC
+ -t 13.620307779 -s 6 -d -1 -p message -e 90 -c 2 -a 0 -i 29 -k MAC 
- -t 13.620307779 -s 6 -d -1 -p message -e 90 -c 2 -a 0 -i 29 -k MAC
h -t 13.620307779 -s 6 -d -1 -p message -e 90 -c 2 -a 0 -i 29 -k MAC
r -t 13.621028446 -s 3 -d -1 -p message -e 32 -c 2 -a 0 -i 29 -k MAC
r -t 13.621028446 -s 5 -d -1 -p message -e 32 -c 2 -a 0 -i 29 -k MAC
r -t 13.621028525 -s 4 -d -1 -p message -e 32 -c 2 -a 0 -i 29 -k MAC
r -t 13.621053446 -s 3 -d -1 -p message -e 32 -c 2 -a 0 -i 29 -k RTR
r -t 13.621053446 -s 5 -d -1 -p message -e 32 -c 2 -a 0 -i 29 -k RTR
r -t 13.621053525 -s 4 -d -1 -p message -e 32 -c 2 -a 0 -i 29 -k RTR
+ -t 13.621138446 -s 3 -d -1 -p RTS -e 44 -c 2 -a 0 -i 0 -k MAC 