M 0.00000 0 (100.00, 300.00, 0.00), (100.00, 300.00), 0.00
M 0.00000 1 (100.00, 100.00, 0.00), (100.00, 100.00), 0.00
M 0.00000 2 (300.00, 300.00, 0.00), (300.00, 300.00), 0.00
M 0.00000 3 (500.00, 300.00, 0.00), (500.00, 300.00), 0.00
M 0.00000 4 (300.00, 200.00, 0.00), (300.00, 200.00), 0.00
M 0.00000 5 (300.00, 100.00, 0.00), (300.00, 100.00), 0.00
M 0.00000 6 (500.00, 100.00, 0.00), (500.00, 100.00), 0.00
s 0.034797973 _0_ RTR  --- 0 message 32 [0 0 0 0] ------- [0:255 -1:255 32 0] 
s 0.035112973 _0_ MAC  --- 0 message 90 [0 ffffffff 0 800] ------- [0:255 -1:255 32 0] 
r 0.035833639 _1_ MAC  --- 0 message 32 [0 ffffffff 0 800] ------- [0:255 -1:255 32 0] 
r 0.035833639 _2_ MAC  --- 0 message 32 [0 ffffffff 0 800] ------- [0:255 -1:255 32 0] 
r 0.035833718 _4_ MAC  --- 0 message 32 [0 ffffffff 0 800] ------- [0:255 -1:255 32 0] 
r 0.035858639 _1_ RTR  --- 0 message 32 [0 ffffffff 0 800] ------- [0:255 -1:255 32 0] 
r 0.035858639 _2_ RTR  --- 0 message 32 [0 ffffffff 0 800] ------- [0:255 -1:255 32 0] 
r 0.035858718 _4_ RTR  --- 0 message 32 [0 ffffffff 0 800] ------- [0:255 -1:255 32 0] 
s 0.176673288 _1_ RTR  --- 1 message 32 [0 0 0 0] ------- [1:255 -1:255 32 0] 
s 0.177108288 _1_ MAC  --- 1 message 90 [0 ffffffff 1 800] ------- [1:255 -1:255 32 0] 
r 0.177828955 _0_ MAC  --- 1 message 32 [0 ffffffff 1 800] ------- [1:255 -1:255 32 0] 
r 0.177828955 _5_ MAC  --- 1 message 32 [0 ffffffff 1 800] ------- [1:255 -1:255 32 0] 
r 0.177829034 _4_ MAC  --- 1 message 32 [0 ffffffff 1 800] ------- [1:255 -1:255 32 0] 
r 0.177853955 _0_ RTR  --- 1 message 32 [0 ffffffff 1 800] ------- [1:255 -1:255 32 0] 
r 0.177853955 _5_ RTR  --- 1 message 32 [0 ffffffff 1 800] ------- [1:255 -1:255 32 0] 
r 0.177854034 _4_ RTR  --- 1 message 32 [0 ffffffff 1 800] ------- [1:255 -1:255 32 0] 
s 0.473440071 _6_ RTR  --- 2 message 32 [0 0 0 0] ------- [6:255 -1:255 32 0] 
s 0.473855071 _6_ MAC  --- 2 message 90 [0 ffffffff 6 800] ------- [6:255 -1:255 32 0] 
r 0.474575738 _3_ MAC  --- 2 message 32 [0 ffffffff 6 800] ------- [6:255 -1:255 32 0] 
r 0.474575738 _5_ MAC  --- 2 message 32 [0 ffffffff 6 800] ------- [6:255 -1:255 32 0] 
r 0.474575816 _4_ MAC  --- 2 message 32 [0 ffffffff 6 800] ------- [6:255 -1:255 32 0] 
r 0.474600738 _3_ RTR  --- 2 message 32 [0 ffffffff 6 800] ------- [6:255 -1:255 32 0] 
r 0.474600738 _5_ RTR  --- 2 message 32 [0 ffffffff 6 800] ------- [6:255 -1:255 32 0] 
r 0.474600816 _4_ RTR  --- 2 message 32 [0 ffffffff 6 800] ------- [6:255 -1:255 32 0] 
s 0.629410954 _4_ RTR  --- 3 message 32 [0 0 0 0] ------- [4:255 -1:255 32 0] 
s 0.629505954 _4_ MAC  --- 3 message 90 [0 ffffffff 4 800] ------- [4:255 -1:255 32 0] 
r 0.630226287 _2_ MAC  --- 3 message 32 [0 ffffffff 4 800] ------- [4:255 -1:255 32 0] 
r 0.630226287 _5_ MAC  --- 3 message 32 [0 ffffffff 4 800] ------- [4:255 -1:255 32 0] 
r 0.630226699 _1_ MAC  --- 3 message 32 [0 ffffffff 4 800] ------- [4:255 -1:255 32 0] 
r 0.630226699 _0_ MAC  --- 3 message 32 [0 ffffffff 4 800] ------- [4:255 -1:255 32 0] 
r 0.630226699 _3_ MAC  --- 3 message 32 [0 ffffffff 4 800] ------- [4:255 -1:255 32 0] 
r 0.630226699 _6_ MAC  --- 3 message 32 [0 ffffffff 4 800] ------- [4:255 -1:255 32 0] 
r 0.630251287 _2_ RTR  --- 3 message 32 [0 ffffffff 4 800] ------- [4:255 -1:255 32 0] 
r 0.630251287 _5_ RTR  --- 3 message 32 [0 ffffffff 4 800] ------- [4:255 -1:255 32 0] 
r 0.630251699 _1_ RTR  --- 3 message 32 [0 ffffffff 4 800] ------- [4:255 -1:255 32 0] 
r 0.630251699 _0_ RTR  --- 3 message 32 [0 ffffffff 4 800] ------- [4:255 -1:255 32 0] 
r 0.630251699 _3_ RTR  --- 3 message 32 [0 ffffffff 4 800] ------- [4:255 -1:255 32 0] 
r 0.630251699 _6_ RTR  --- 3 message 32 [0 ffffffff 4 800] ------- [4:255 -1:255 32 0] 
s 0.887007923 _2_ RTR  --- 4 message 32 [0 0 0 0] ------- [2:255 -1:255 32 0] 
s 0.887662923 _2_ MAC  --- 4 message 90 [0 ffffffff 2 800] ------- [2:255 -1:255 32 0] 
r 0.888383257 _4_ MAC  --- 4 message 32 [0 ffffffff 2 800] ------- [2:255 -1:255 32 0] 
r 0.888383590 _0_ MAC  --- 4 message 32 [0 ffffffff 2 800] ------- [2:255 -1:255 32 0] 
r 0.888383590 _5_ MAC  --- 4 message 32 [0 ffffffff 2 800] ------- [2:255 -1:255 32 0] 
r 0.888383590 _3_ MAC  --- 4 message 32 [0 ffffffff 2 800] ------- [2:255 -1:255 32 0] 
r 0.888408257 _4_ RTR  --- 4 message 32 [0 ffffffff 2 800] ------- [2:255 -1:255 32 0] 
r 0.888408590 _0_ RTR  --- 4 message 32 [0 ffffffff 2 800] ------- [2:255 -1:255 32 0] 
r 0.888408590 _5_ RTR  --- 4 message 32 [0 ffffffff 2 800] ------- [2:255 -1:255 32 0] 
r 0.888408590 _3_ RTR  --- 4 message 32 [0 ffffffff 2 800] ------- [2:255 -1:255 32 0] 
s 1.600482502 _3_ RTR  --- 5 message 32 [0 0 0 0] ------- [3:255 -1:255 32 0] 
s 1.600597502 _3_ MAC  --- 5 message 90 [0 ffffffff 3 800] ------- [3:255 -1:255 32 0] 
r 1.601318168 _2_ MAC  --- 5 message 32 [0 ffffffff 3 800] ------- [3:255 -1:255 32 0] 
r 1.601318168 _6_ MAC  --- 5 message 32 [0 ffffffff 3 800] ------- [3:255 -1:255 32 0] 
r 1.601318247 _4_ MAC  --- 5 message 32 [0 ffffffff 3 800] ------- [3:255 -1:255 32 0] 
r 1.601343168 _2_ RTR  --- 5 message 32 [0 ffffffff 3 800] ------- [3:255 -1:255 32 0] 
r 1.601343168 _6_ RTR  --- 5 message 32 [0 ffffffff 3 800] ------- [3:255 -1:255 32 0] 
r 1.601343247 _4_ RTR  --- 5 message 32 [0 ffffffff 3 800] ------- [3:255 -1:255 32 0] 
s 1.640574422 _5_ RTR  --- 6 message 32 [0 0 0 0] ------- [5:255 -1:255 32 0] 
s 1.640729422 _5_ MAC  --- 6 message 90 [0 ffffffff 5 800] ------- [5:255 -1:255 32 0] 
r 1.641449755 _4_ MAC  --- 6 message 32 [0 ffffffff 5 800] ------- [5:255 -1:255 32 0] 
r 1.641450088 _2_ MAC  --- 6 message 32 [0 ffffffff 5 800] ------- [5:255 -1:255 32 0] 
r 1.641450088 _1_ MAC  --- 6 message 32 [0 ffffffff 5 800] ------- [5:255 -1:255 32 0] 
r 1.641450088 _6_ MAC  --- 6 message 32 [0 ffffffff 5 800] ------- [5:255 -1:255 32 0] 
r 1.641474755 _4_ RTR  --- 6 message 32 [0 ffffffff 5 800] ------- [5:255 -1:255 32 0] 
r 1.641475088 _2_ RTR  --- 6 message 32 [0 ffffffff 5 800] ------- [5:255 -1:255 32 0] 
r 1.641475088 _1_ RTR  --- 6 message 32 [0 ffffffff 5 800] ------- [5:255 -1:255 32 0] 
r 1.641475088 _6_ RTR  --- 6 message 32 [0 ffffffff 5 800] ------- [5:255 -1:255 32 0] 
s 3.000000000 _0_ AGT  --- 7 tcp 40 [0 0 0 0] ------- [0:0 3:0 32 0] [0 0] 0 0
r 3.000000000 _0_ RTR  --- 7 tcp 40 [0 0 0 0] ------- [0:0 3:0 32 0] [0 0] 0 0
s 3.000000000 _1_ AGT  --- 8 tcp 40 [0 0 0 0] ------- [1:0 6:0 32 0] [0 0] 0 0
r 3.000000000 _1_ RTR  --- 8 tcp 40 [0 0 0 0] ------- [1:0 6:0 32 0] [0 0] 0 0
s 6.000000000 _0_ AGT  --- 9 tcp 40 [0 0 0 0] ------- [0:0 3:0 32 0] [0 0] 0 0
r 6.000000000 _0_ RTR  --- 9 tcp 40 [0 0 0 0] ------- [0:0 3:0 32 0] [0 0] 0 0
s 6.000000000 _1_ AGT  --- 10 tcp 40 [0 0 0 0] ------- [1:0 6:0 32 0] [0 0] 0 0
r 6.000000000 _1_ RTR  --- 10 tcp 40 [0 0 0 0] ------- [1:0 6:0 32 0] [0 0] 0 0
s 12.000000000 _0_ AGT  --- 11 tcp 40 [0 0 0 0] ------- [0:0 3:0 32 0] [0 0] 0 0
r 12.000000000 _0_ RTR  --- 11 tcp 40 [0 0 0 0] ------- [0:0 3:0 32 0] [0 0] 0 0
s 12.000000000 _1_ AGT  --- 12 tcp 40 [0 0 0 0] ------- [1:0 6:0 32 0] [0 0] 0 0
r 12.000000000 _1_ RTR  --- 12 tcp 40 [0 0 0 0] ------- [1:0 6:0 32 0] [0 0] 0 0
s 12.037732292 _2_ RTR  --- 14 message 32 [0 0 0 0] ------- [2:255 -1:255 32 0] 
s 12.038027292 _2_ MAC  --- 14 message 90 [0 ffffffff 2 800] ------- [2:255 -1:255 32 0] 
r 12.038747625 _4_ MAC  --- 14 message 32 [0 ffffffff 2 800] ------- [2:255 -1:255 32 0] 
r 12.038747958 _0_ MAC  --- 14 message 32 [0 ffffffff 2 800] ------- [2:255 -1:255 32 0] 
r 12.038747958 _5_ MAC  --- 14 message 32 [0 ffffffff 2 800] ------- [2:255 -1:255 32 0] 
r 12.038747958 _3_ MAC  --- 14 message 32 [0 ffffffff 2 800] ------- [2:255 -1:255 32 0] 
r 12.038772625 _4_ RTR  --- 14 message 32 [0 ffffffff 2 800] ------- [2:255 -1:255 32 0] 
r 12.038772958 _0_ RTR  --- 14 message 32 [0 ffffffff 2 800] ------- [2:255 -1:255 32 0] 
r 12.038772958 _5_ RTR  --- 14 message 32 [0 ffffffff 2 800] ------- [2:255 -1:255 32 0] 
r 12.038772958 _3_ RTR  --- 14 message 32 [0 ffffffff 2 800] ------- [2:255 -1:255 32 0] 
s 12.039900715 _1_ RTR  --- 13 message 32 [0 0 0 0] ------- [1:255 -1:255 32 0] 
s 12.040555715 _1_ MAC  --- 13 message 90 [0 ffffffff 1 800] ------- [1:255 -1:255 32 0] 
r 12.041276381 _0_ MAC  --- 13 message 32 [0 ffffffff 1 800] ------- [1:255 -1:255 32 0] 
r 12.041276381 _5_ MAC  --- 13 message 32 [0 ffffffff 1 800] ------- [1:255 -1:255 32 0] 
r 12.041276460 _4_ MAC  --- 13 message 32 [0 ffffffff 1 800] ------- [1:255 -1:255 32 0] 
r 12.041301381 _0_ RTR  --- 13 message 32 [0 ffffffff 1 800] ------- [1:255 -1:255 32 0] 
r 12.041301381 _5_ RTR  --- 13 message 32 [0 ffffffff 1 800] ------- [1:255 -1:255 32 0] 
r 12.041301460 _4_ RTR  --- 13 message 32 [0 ffffffff 1 800] ------- [1:255 -1:255 32 0] 
s 12.044733154 _4_ RTR  --- 15 message 32 [0 0 0 0] ------- [4:255 -1:255 32 0] 
s 12.044928154 _4_ MAC  --- 15 message 90 [0 ffffffff 4 800] ------- [4:255 -1:255 32 0] 
r 12.045648487 _2_ MAC  --- 15 message 32 [0 ffffffff 4 800] ------- [4:255 -1:255 32 0] 
r 12.045648487 _5_ MAC  --- 15 message 32 [0 ffffffff 4 800] ------- [4:255 -1:255 32 0] 
r 12.045648899 _1_ MAC  --- 15 message 32 [0 ffffffff 4 800] ------- [4:255 -1:255 32 0] 
r 12.045648899 _0_ MAC  --- 15 message 32 [0 ffffffff 4 800] ------- [4:255 -1:255 32 0] 
r 12.045648899 _3_ MAC  --- 15 message 32 [0 ffffffff 4 800] ------- [4:255 -1:255 32 0] 
r 12.045648899 _6_ MAC  --- 15 message 32 [0 ffffffff 4 800] ------- [4:255 -1:255 32 0] 
r 12.045673487 _2_ RTR  --- 15 message 32 [0 ffffffff 4 800] ------- [4:255 -1:255 32 0] 
r 12.045673487 _5_ RTR  --- 15 message 32 [0 ffffffff 4 800] ------- [4:255 -1:255 32 0] 
r 12.045673899 _1_ RTR  --- 15 message 32 [0 ffffffff 4 800] ------- [4:255 -1:255 32 0] 
r 12.045673899 _0_ RTR  --- 15 message 32 [0 ffffffff 4 800] ------- [4:255 -1:255 32 0] 
r 12.045673899 _3_ RTR  --- 15 message 32 [0 ffffffff 4 800] ------- [4:255 -1:255 32 0] 
r 12.045673899 _6_ RTR  --- 15 message 32 [0 ffffffff 4 800] ------- [4:255 -1:255 32 0] 
s 12.179084990 _5_ RTR  --- 17 message 32 [0 0 0 0] ------- [5:255 -1:255 32 0] 
s 12.179339990 _5_ MAC  --- 17 message 90 [0 ffffffff 5 800] ------- [5:255 -1:255 32 0] 
r 12.180060323 _4_ MAC  --- 17 message 32 [0 ffffffff 5 800] ------- [5:255 -1:255 32 0] 
r 12.180060656 _2_ MAC  --- 17 message 32 [0 ffffffff 5 800] ------- [5:255 -1:255 32 0] 
r 12.180060656 _1_ MAC  --- 17 message 32 [0 ffffffff 5 800] ------- [5:255 -1:255 32 0] 
r 12.180060656 _6_ MAC  --- 17 message 32 [0 ffffffff 5 800] ------- [5:255 -1:255 32 0] 
r 12.180085323 _4_ RTR  --- 17 message 32 [0 ffffffff 5 800] ------- [5:255 -1:255 32 0] 
r 12.180085656 _2_ RTR  --- 17 message 32 [0 ffffffff 5 800] ------- [5:255 -1:255 32 0] 
r 12.180085656 _1_ RTR  --- 17 message 32 [0 ffffffff 5 800] ------- [5:255 -1:255 32 0] 
r 12.180085656 _6_ RTR  --- 17 message 32 [0 ffffffff 5 800] ------- [5:255 -1:255 32 0] 
s 12.181210582 _0_ RTR  --- 16 message 32 [0 0 0 0] ------- [0:255 -1:255 32 0] 
s 12.181765582 _0_ MAC  --- 16 message 90 [0 ffffffff 0 800] ------- [0:255 -1:255 32 0] 
r 12.182486249 _1_ MAC  --- 16 message 32 [0 ffffffff 0 800] ------- [0:255 -1:255 32 0] 
r 12.182486249 _2_ MAC  --- 16 message 32 [0 ffffffff 0 800] ------- [0:255 -1:255 32 0] 
r 12.182486328 _4_ MAC  --- 16 message 32 [0 ffffffff 0 800] ------- [0:255 -1:255 32 0] 
r 12.182511249 _1_ RTR  --- 16 message 32 [0 ffffffff 0 800] ------- [0:255 -1:255 32 0] 
r 12.182511249 _2_ RTR  --- 16 message 32 [0 ffffffff 0 800] ------- [0:255 -1:255 32 0] 
r 12.182511328 _4_ RTR  --- 16 message 32 [0 ffffffff 0 800] ------- [0:255 -1:255 32 0] 
s 12.383489762 _6_ RTR  --- 18 message 32 [0 0 0 0] ------- [6:255 -1:255 32 0] 
s 12.383724762 _6_ MAC  --- 18 message 90 [0 ffffffff 6 800] ------- [6:255 -1:255 32 0] 
r 12.384445429 _3_ MAC  --- 18 message 32 [0 ffffffff 6 800] ------- [6:255 -1:255 32 0] 
r 12.384445429 _5_ MAC  --- 18 message 32 [0 ffffffff 6 800] ------- [6:255 -1:255 32 0] 
r 12.384445508 _4_ MAC  --- 18 message 32 [0 ffffffff 6 800] ------- [6:255 -1:255 32 0] 
r 12.384470429 _3_ RTR  --- 18 message 32 [0 ffffffff 6 800] ------- [6:255 -1:255 32 0] 
r 12.384470429 _5_ RTR  --- 18 message 32 [0 ffffffff 6 800] ------- [6:255 -1:255 32 0] 
r 12.384470508 _4_ RTR  --- 18 message 32 [0 ffffffff 6 800] ------- [6:255 -1:255 32 0] 
s 12.437731363 _0_ RTR  --- 19 message 44 [0 0 0 0] ------- [0:255 -1:255 32 0] 
s 12.437806363 _0_ MAC  --- 19 message 102 [0 ffffffff 0 800] ------- [0:255 -1:255 32 0] 
r 12.438623030 _1_ MAC  --- 19 message 44 [0 ffffffff 0 800] ------- [0:255 -1:255 32 0] 
r 12.438623030 _2_ MAC  --- 19 message 44 [0 ffffffff 0 800] ------- [0:255 -1:255 32 0] 
r 12.438623108 _4_ MAC  --- 19 message 44 [0 ffffffff 0 800] ------- [0:255 -1:255 32 0] 
r 12.438648030 _1_ RTR  --- 19 message 44 [0 ffffffff 0 800] ------- [0:255 -1:255 32 0] 
r 12.438648030 _2_ RTR  --- 19 message 44 [0 ffffffff 0 800] ------- [0:255 -1:255 32 0] 
r 12.438648108 _4_ RTR  --- 19 message 44 [0 ffffffff 0 800] ------- [0:255 -1:255 32 0] 
s 12.639719861 _3_ RTR  --- 21 message 32 [0 0 0 0] ------- [3:255 -1:255 32 0] 
s 12.640074861 _3_ MAC  --- 21 message 90 [0 ffffffff 3 800] ------- [3:255 -1:255 32 0] 
r 12.640795527 _2_ MAC  --- 21 message 32 [0 ffffffff 3 800] ------- [3:255 -1:255 32 0] 
r 12.640795527 _6_ MAC  --- 21 message 32 [0 ffffffff 3 800] ------- [3:255 -1:255 32 0] 
r 12.640795606 _4_ MAC  --- 21 message 32 [0 ffffffff 3 800] ------- [3:255 -1:255 32 0] 
r 12.640820527 _2_ RTR  --- 21 message 32 [0 ffffffff 3 800] ------- [3:255 -1:255 32 0] 
r 12.640820527 _6_ RTR  --- 21 message 32 [0 ffffffff 3 800] ------- [3:255 -1:255 32 0] 
r 12.640820606 _4_ RTR  --- 21 message 32 [0 ffffffff 3 800] ------- [3:255 -1:255 32 0] 
s 12.850702724 _4_ RTR  --- 22 message 44 [0 0 0 0] ------- [4:255 -1:255 32 0] 
s 12.850897724 _4_ MAC  --- 22 message 102 [0 ffffffff 4 800] ------- [4:255 -1:255 32 0] 
r 12.851714057 _2_ MAC  --- 22 message 44 [0 ffffffff 4 800] ------- [4:255 -1:255 32 0] 
r 12.851714057 _5_ MAC  --- 22 message 44 [0 ffffffff 4 800] ------- [4:255 -1:255 32 0] 
r 12.851714469 _1_ MAC  --- 22 message 44 [0 ffffffff 4 800] ------- [4:255 -1:255 32 0] 
r 12.851714469 _0_ MAC  --- 22 message 44 [0 ffffffff 4 800] ------- [4:255 -1:255 32 0] 
r 12.851714469 _3_ MAC  --- 22 message 44 [0 ffffffff 4 800] ------- [4:255 -1:255 32 0] 
r 12.851714469 _6_ MAC  --- 22 message 44 [0 ffffffff 4 800] ------- [4:255 -1:255 32 0] 
r 12.851739057 _2_ RTR  --- 22 message 44 [0 ffffffff 4 800] ------- [4:255 -1:255 32 0] 
r 12.851739057 _5_ RTR  --- 22 message 44 [0 ffffffff 4 800] ------- [4:255 -1:255 32 0] 
r 12.851739469 _1_ RTR  --- 22 message 44 [0 ffffffff 4 800] ------- [4:255 -1:255 32 0] 
r 12.851739469 _0_ RTR  --- 22 message 44 [0 ffffffff 4 800] ------- [4:255 -1:255 32 0] 
r 12.851739469 _3_ RTR  --- 22 message 44 [0 ffffffff 4 800] ------- [4:255 -1:255 32 0] 
r 12.851739469 _6_ RTR  --- 22 message 44 [0 ffffffff 4 800] ------- [4:255 -1:255 32 0] 
s 13.182771172 _5_ RTR  --- 25 message 44 [0 0 0 0] ------- [5:255 -1:255 32 0] 
s 13.183306172 _5_ MAC  --- 25 message 102 [0 ffffffff 5 800] ------- [5:255 -1:255 32 0] 
r 13.184122505 _4_ MAC  --- 25 message 44 [0 ffffffff 5 800] ------- [5:255 -1:255 32 0] 
r 13.184122839 _2_ MAC  --- 25 message 44 [0 ffffffff 5 800] ------- [5:255 -1:255 32 0] 
r 13.184122839 _1_ MAC  --- 25 message 44 [0 ffffffff 5 800] ------- [5:255 -1:255 32 0] 
r 13.184122839 _6_ MAC  --- 25 message 44 [0 ffffffff 5 800] ------- [5:255 -1:255 32 0] 
r 13.184147505 _4_ RTR  --- 25 message 44 [0 ffffffff 5 800] ------- [5:255 -1:255 32 0] 
r 13.184147839 _2_ RTR  --- 25 message 44 [0 ffffffff 5 800] ------- [5:255 -1:255 32 0] 
r 13.184147839 _1_ RTR  --- 25 message 44 [0 ffffffff 5 800] ------- [5:255 -1:255 32 0] 
r 13.184147839 _6_ RTR  --- 25 message 44 [0 ffffffff 5 800] ------- [5:255 -1:255 32 0] 
s 13.442784774 _0_ RTR  --- 27 message 32 [0 0 0 0] ------- [0:255 -1:255 32 0] 
s 13.442959774 _0_ MAC  --- 27 message 90 [0 ffffffff 0 800] ------- [0:255 -1:255 32 0] 
r 13.443680440 _1_ MAC  --- 27 message 32 [0 ffffffff 0 800] ------- [0:255 -1:255 32 0] 
r 13.443680440 _2_ MAC  --- 27 message 32 [0 ffffffff 0 800] ------- [0:255 -1:255 32 0] 
r 13.443680519 _4_ MAC  --- 27 message 32 [0 ffffffff 0 800] ------- [0:255 -1:255 32 0] 
r 13.443705440 _1_ RTR  --- 27 message 32 [0 ffffffff 0 800] ------- [0:255 -1:255 32 0] 
r 13.443705440 _2_ RTR  --- 27 message 32 [0 ffffffff 0 800] ------- [0:255 -1:255 32 0] 
r 13.443705519 _4_ RTR  --- 27 message 32 [0 ffffffff 0 800] ------- [0:255 -1:255 32 0] 
s 13.602225170 _2_ RTR  --- 28 message 32 [0 0 0 0] ------- [2:255 -1:255 32 0] 
s 13.602360170 _2_ MAC  --- 28 message 90 [0 ffffffff 2 800] ------- [2:255 -1:255 32 0] 
r 13.603080503 _4_ MAC  --- 28 message 32 [0 ffffffff 2 800] ------- [2:255 -1:255 32 0] 
r 13.603080836 _0_ MAC  --- 28 message 32 [0 ffffffff 2 800] ------- [2:255 -1:255 32 0] 
r 13.603080836 _5_ MAC  --- 28 message 32 [0 ffffffff 2 800] ------- [2:255 -1:255 32 0] 
r 13.603080836 _3_ MAC  --- 28 message 32 [0 ffffffff 2 800] ------- [2:255 -1:255 32 0] 
r 13.603105503 _4_ RTR  --- 28 message 32 [0 ffffffff 2 800] ------- [2:255 -1:255 32 0] 
r 13.603105836 _0_ RTR  --- 28 message 32 [0 ffffffff 2 800] ------- [2:255 -1:255 32 0] 
s 13.603105836 _0_ RTR  --- 7 tcp 80 [0 0 0 0] ------- [0:0 3:0 32 2] [0 0] 0 0
s 13.603105836 _0_ RTR  --- 9 tcp 80 [0 0 0 0] ------- [0:0 3:0 32 2] [0 0] 0 0
D 13.603105836 _0_ IFQ  ARP 7 tcp 80 [0 0 0 800] ------- [0:0 3:0 32 2] [0 0] 0 0
s 13.603105836 _0_ RTR  --- 11 tcp 80 [0 0 0 0] ------- [0:0 3:0 32 2] [0 0] 0 0
D 13.603105836 _0_ IFQ  ARP 9 tcp 80 [0 0 0 800] ------- [0:0 3:0 32 2] [0 0] 0 0
r 13.603105836 _5_ RTR  --- 28 message 32 [0 ffffffff 2 800] ------- [2:255 -1:255 32 0] 
r 13.603105836 _3_ RTR  --- 28 message 32 [0 ffffffff 2 800] ------- [2:255 -1:255 32 0] 
s 13.603760836 _0_ MAC  --- 0 ARP 86 [0 ffffffff 0 806] ------- [REQUEST 0/0 0/2]
r 13.604449503 _1_ MAC  --- 0 ARP 28 [0 ffffffff 0 806] ------- [REQUEST 0/0 0/2]
r 13.604449503 _2_ MAC  --- 0 ARP 28 [0 ffffffff 0 806] ------- [REQUEST 0/0 0/2]
r 13.604449582 _4_ MAC  --- 0 ARP 28 [0 ffffffff 0 806] ------- [REQUEST 0/0 0/2]
s 13.604564503 _2_ MAC  --- 0 RTS 44 [52e 0 2 0] 
r 13.604917170 _0_ MAC  --- 0 RTS 44 [52e 0 2 0] 
s 13.604927170 _0_ MAC  --- 0 CTS 38 [3f4 2 0 0] 
r 13.605231836 _2_ MAC  --- 0 CTS 38 [3f4 2 0 0] 
s 13.605241836 _2_ MAC  --- 0 ARP 86 [13a 0 2 806] ------- [REPLY 2/2 0/0]
r 13.605930503 _0_ MAC  --- 0 ARP 28 [13a 0 2 806] ------- [REPLY 2/2 0/0]
s 13.605940503 _0_ MAC  --- 0 ACK 38 [0 2 0 0] 
r 13.606245170 _2_ MAC  --- 0 ACK 38 [0 2 0 0] 
s 13.606354503 _0_ MAC  --- 0 ARP 86 [0 ffffffff 0 806] ------- [REQUEST 0/0 0/2]
r 13.607043170 _1_ MAC  --- 0 ARP 28 [0 ffffffff 0 806] ------- [REQUEST 0/0 0/2]
r 13.607043170 _2_ MAC  --- 0 ARP 28 [0 ffffffff 0 806] ------- [REQUEST 0/0 0/2]
r 13.607043248 _4_ MAC  --- 0 ARP 28 [0 ffffffff 0 806] ------- [REQUEST 0/0 0/2]
s 13.607212503 _0_ MAC  --- 0 ARP 86 [0 ffffffff 0 806] ------- [REQUEST 0/0 0/2]
r 13.607901170 _1_ MAC  --- 0 ARP 28 [0 ffffffff 0 806] ------- [REQUEST 0/0 0/2]
r 13.607901170 _2_ MAC  --- 0 ARP 28 [0 ffffffff 0 806] ------- [REQUEST 0/0 0/2]
r 13.607901248 _4_ MAC  --- 0 ARP 28 [0 ffffffff 0 806] ------- [REQUEST 0/0 0/2]
s 13.608371170 _2_ MAC  --- 0 RTS 44 [52e 0 2 0] 
r 13.608723836 _0_ MAC  --- 0 RTS 44 [52e 0 2 0] 
s 13.608733836 _0_ MAC  --- 0 CTS 38 [3f4 2 0 0] 
r 13.609038503 _2_ MAC  --- 0 CTS 38 [3f4 2 0 0] 
s 13.609048503 _2_ MAC  --- 0 ARP 86 [13a 0 2 806] ------- [REPLY 2/2 0/0]
s 13.609487170 _6_ RTR  --- 29 message 32 [0 0 0 0] ------- [6:255 -1:255 32 0] 
r 13.609737170 _0_ MAC  --- 0 ARP 28 [13a 0 2 806] ------- [REPLY 2/2 0/0]
s 13.609747170 _0_ MAC  --- 0 ACK 38 [0 2 0 0] 
r 13.610051836 _2_ MAC  --- 0 ACK 38 [0 2 0 0] 
s 13.610281170 _0_ MAC  --- 0 RTS 44 [6ce 2 0 0] 
r 13.610633836 _2_ MAC  --- 0 RTS 44 [6ce 2 0 0] 
s 13.610643836 _2_ MAC  --- 0 CTS 38 [594 0 0 0] 
r 13.610948503 _0_ MAC  --- 0 CTS 38 [594 0 0 0] 
s 13.610958503 _0_ MAC  --- 11 tcp 138 [13a 2 0 800] ------- [0:0 3:0 32 2] [0 0] 0 0
r 13.612063170 _2_ MAC  --- 11 tcp 80 [13a 2 0 800] ------- [0:0 3:0 32 2] [0 0] 1 0
s 13.612073170 _2_ MAC  --- 0 ACK 38 [0 0 0 0] 
r 13.612088170 _2_ RTR  --- 11 tcp 80 [13a 2 0 800] ------- [0:0 3:0 32 2] [0 0] 1 0
f 13.612088170 _2_ RTR  --- 11 tcp 80 [13a 2 0 800] ------- [0:0 3:0 31 3] [0 0] 1 0
r 13.612377836 _0_ MAC  --- 0 ACK 38 [0 0 0 0] 
s 13.612787170 _2_ MAC  --- 0 RTS 44 [52e 0 2 0] 
r 13.613139836 _0_ MAC  --- 0 RTS 44 [52e 0 2 0] 
s 13.613149836 _0_ MAC  --- 0 CTS 38 [3f4 2 0 0] 
r 13.613454503 _2_ MAC  --- 0 CTS 38 [3f4 2 0 0] 
s 13.613464503 _2_ MAC  --- 0 ARP 86 [13a 0 2 806] ------- [REPLY 2/2 0/0]
r 13.614153170 _0_ MAC  --- 0 ARP 28 [13a 0 2 806] ------- [REPLY 2/2 0/0]
s 13.614163170 _0_ MAC  --- 0 ACK 38 [0 2 0 0] 
r 13.614467836 _2_ MAC  --- 0 ACK 38 [0 2 0 0] 
s 13.614817836 _2_ MAC  --- 0 ARP 86 [0 ffffffff 2 806] ------- [REQUEST 2/2 0/3]
r 13.615506170 _4_ MAC  --- 0 ARP 28 [0 ffffffff 2 806] ------- [REQUEST 2/2 0/3]
r 13.615506503 _0_ MAC  --- 0 ARP 28 [0 ffffffff 2 806] ------- [REQUEST 2/2 0/3]
r 13.615506503 _5_ MAC  --- 0 ARP 28 [0 ffffffff 2 806] ------- [REQUEST 2/2 0/3]
r 13.615506503 _3_ MAC  --- 0 ARP 28 [0 ffffffff 2 806] ------- [REQUEST 2/2 0/3]
s 13.615901503 _3_ MAC  --- 0 RTS 44 [52e 2 3 0] 
r 13.616254170 _2_ MAC  --- 0 RTS 44 [52e 2 3 0] 
s 13.616264170 _2_ MAC  --- 0 CTS 38 [3f4 3 0 0] 
r 13.616568836 _3_ MAC  --- 0 CTS 38 [3f4 3 0 0] 
s 13.616578836 _3_ MAC  --- 0 ARP 86 [13a 2 3 806] ------- [REPLY 3/3 2/2]
r 13.617267503 _2_ MAC  --- 0 ARP 28 [13a 2 3 806] ------- [REPLY 3/3 2/2]
s 13.617277503 _2_ MAC  --- 0 ACK 38 [0 3 0 0] 
r 13.617582170 _3_ MAC  --- 0 ACK 38 [0 3 0 0] 
s 13.617671503 _2_ MAC  --- 0 RTS 44 [6ce 3 2 0] 
r 13.618024170 _3_ MAC  --- 0 RTS 44 [6ce 3 2 0] 
s 13.618034170 _3_ MAC  --- 0 CTS 38 [594 2 0 0] 
r 13.618338836 _2_ MAC  --- 0 CTS 38 [594 2 0 0] 
s 13.618348836 _2_ MAC  --- 11 tcp 138 [13a 3 2 800] ------- [0:0 3:0 31 3] [0 0] 1 0
r 13.619453503 _3_ MAC  --- 11 tcp 80 [13a 3 2 800] ------- [0:0 3:0 31 3] [0 0] 2 0
s 13.619463503 _3_ MAC  --- 0 ACK 38 [0 2 0 0] 
r 13.619478503 _3_ AGT  --- 11 tcp 80 [13a 3 2 800] ------- [0:0 3:0 31 3] [0 0] 2 0
s 13.619478503 _3_ AGT  --- 30 ack 40 [0 0 0 0] ------- [3:0 0:0 32 0] [0 0] 0 0
r 13.619478503 _3_ RTR  --- 30 ack 40 [0 0 0 0] ------- [3:0 0:0 32 0] [0 0] 0 0
s 13.619478503 _3_ RTR  --- 30 ack 60 [0 0 0 0] ------- [3:0 0:0 32 2] [0 0] 0 0
r 13.619768170 _2_ MAC  --- 0 ACK 38 [0 2 0 0] 
s 13.620307779 _6_ MAC  --- 29 message 90 [0 ffffffff 6 800] ------- [6:255 -1:255 32 0] 
r 13.621028446 _3_ MAC  --- 29 message 32 [0 ffffffff 6 800] ------- [6:255 -1:255 32 0] 
r 13.621028446 _5_ MAC  --- 29 message 32 [0 ffffffff 6 800] ------- [6:255 -1:255 32 0] 
r 13.621028525 _4_ MAC  --- 29 message 32 [0 ffffffff 6 800] ------- [6:255 -1:255 32 0] 
r 13.621053446 _3_ RTR  --- 29 message 32 [0 ffffffff 6 800] ------- [6:255 -1:255 32 0] 
r 13.621053446 _5_ RTR  --- 29 message 32 [0 ffffffff 6 800] ------- [6:255 -1:255 32 0] 
r 13.621053525 _4_ RTR  --- 29 message 32 [0 ffffffff 6 800] ------- [6:255 -1:255 32 0] 
s 13.621138446 _3_ MAC  --- 0 RTS 44 [62e 2 3 0] 
r 13.621491113 _2_ MAC  --- 0 RTS 44 [62e 2 3 0] 
s 13.621501113 _2_ MAC  --- 0 CTS 38 [4f4 3 0 0] 
r 13.621805779 _3_ MAC  --- 0 CTS 38 [4f4 3 0 0] 
s 13.621815779 _3_ MAC  --- 30 ack 118 [13a 2 3 800] ------- [3:0 0:0 32 2] [0 0] 0 0
r 13.622760446 _2_ MAC  --- 30 ack 60 [13a 2 3 800] ------- [3:0 0:0 32 2] [0 0] 1 0
s 13.622770446 _2_ MAC  --- 0 ACK 38 [0 3 0 0] 
r 13.622785446 _2_ RTR  --- 30 ack 60 [13a 2 3 800] ------- [3:0 0:0 32 2] [0 0] 1 0
f 13.622785446 _2_ RTR  --- 30 ack 60 [13a 2 3 800] ------- [3:0 0:0 31 0] [0 0] 1 0
r 13.623075113 _3_ MAC  --- 0 ACK 38 [0 3 0 0] 
s 13.623284446 _2_ MAC  --- 0 RTS 44 [62e 0 2 0] 
r 13.623637113 _0_ MAC  --- 0 RTS 44 [62e 0 2 0] 
s 13.623647113 _0_ MAC  --- 0 CTS 38 [4f4 2 0 0] 
r 13.623951779 _2_ MAC  --- 0 CTS 38 [4f4 2 0 0] 
s 13.623961779 _2_ MAC  --- 30 ack 118 [13a 0 2 800] ------- [3:0 0:0 31 0] [0 0] 1 0
r 13.624906446 _0_ MAC  --- 30 ack 60 [13a 0 2 800] ------- [3:0 0:0 31 0] [0 0] 2 0
s 13.624916446 _0_ MAC  --- 0 ACK 38 [0 2 0 0] 
r 13.624931446 _0_ AGT  --- 30 ack 60 [13a 0 2 800] ------- [3:0 0:0 31 0] [0 0] 2 0
s 13.624931446 _0_ AGT  --- 31 tcp 1040 [0 0 0 0] ------- [0:0 3:0 32 0] [1 0] 0 0
r 13.624931446 _0_ RTR  --- 31 tcp 1040 [0 0 0 0] ------- [0:0 3:0 32 0] [1 0] 0 0
s 13.624931446 _0_ RTR  --- 31 tcp 1060 [0 0 0 0] ------- [0:0 3:0 32 2] [1 0] 0 0
r 13.625221113 _2_ MAC  --- 0 ACK 38 [0 2 0 0] 
s 13.625670446 _0_ MAC  --- 0 RTS 44 [256e 2 0 0] 
r 13.626023113 _2_ MAC  --- 0 RTS 44 [256e 2 0 0] 
s 13.626033113 _2_ MAC  --- 0 CTS 38 [2434 0 0 0] 
r 13.626337779 _0_ MAC  --- 0 CTS 38 [2434 0 0 0] 
s 13.626347779 _0_ MAC  --- 31 tcp 1118 [13a 2 0 800] ------- [0:0 3:0 32 2] [1 0] 0 0
s 13.633301589 _3_ RTR  --- 32 message 32 [0 0 0 0] ------- [3:255 -1:255 32 0] 
r 13.635292446 _2_ MAC  --- 31 tcp 1060 [13a 2 0 800] ------- [0:0 3:0 32 2] [1 0] 1 0
s 13.635302446 _2_ MAC  --- 0 ACK 38 [0 0 0 0] 
r 13.635317446 _2_ RTR  --- 31 tcp 1060 [13a 2 0 800] ------- [0:0 3:0 32 2] [1 0] 1 0
f 13.635317446 _2_ RTR  --- 31 tcp 1060 [13a 2 0 800] ------- [0:0 3:0 31 3] [1 0] 1 0
r 13.635607113 _0_ MAC  --- 0 ACK 38 [0 0 0 0] 
s 13.635876446 _2_ MAC  --- 0 RTS 44 [256e 3 2 0] 
r 13.636229113 _3_ MAC  --- 0 RTS 44 [256e 3 2 0] 
s 13.636239113 _3_ MAC  --- 0 CTS 38 [2434 2 0 0] 
r 13.636543779 _2_ MAC  --- 0 CTS 38 [2434 2 0 0] 
s 13.636553779 _2_ MAC  --- 31 tcp 1118 [13a 3 2 800] ------- [0:0 3:0 31 3] [1 0] 1 0
r 13.645498446 _3_ MAC  --- 31 tcp 1060 [13a 3 2 800] ------- [0:0 3:0 31 3] [1 0] 2 0
s 13.645508446 _3_ MAC  --- 0 ACK 38 [0 2 0 0] 
r 13.645523446 _3_ AGT  --- 31 tcp 1060 [13a 3 2 800] ------- [0:0 3:0 31 3] [1 0] 2 0
s 13.645523446 _3_ AGT  --- 34 ack 40 [0 0 0 0] ------- [3:0 0:0 32 0] [1 0] 0 0
r 13.645523446 _3_ RTR  --- 34 ack 40 [0 0 0 0] ------- [3:0 0:0 32 0] [1 0] 0 0
s 13.645523446 _3_ RTR  --- 34 ack 60 [0 0 0 0] ------- [3:0 0:0 32 2] [1 0] 0 0
r 13.645813113 _2_ MAC  --- 0 ACK 38 [0 2 0 0] 
s 13.645982446 _3_ MAC  --- 32 message 90 [0 ffffffff 3 800] ------- [3:255 -1:255 32 0] 
r 13.646703113 _2_ MAC  --- 32 message 32 [0 ffffffff 3 800] ------- [3:255 -1:255 32 0] 
r 13.646703113 _6_ MAC  --- 32 message 32 [0 ffffffff 3 800] ------- [3:255 -1:255 32 0] 
r 13.646703191 _4_ MAC  --- 32 message 32 [0 ffffffff 3 800] ------- [3:255 -1:255 32 0] 
r 13.646728113 _2_ RTR  --- 32 message 32 [0 ffffffff 3 800] ------- [3:255 -1:255 32 0] 
r 13.646728113 _6_ RTR  --- 32 message 32 [0 ffffffff 3 800] ------- [3:255 -1:255 32 0] 
r 13.646728191 _4_ RTR  --- 32 message 32 [0 ffffffff 3 800] ------- [3:255 -1:255 32 0] 
s 13.647072446 _3_ MAC  --- 0 RTS 44 [62e 2 3 0] 
r 13.647425113 _2_ MAC  --- 0 RTS 44 [62e 2 3 0] 
s 13.647435113 _2_ MAC  --- 0 CTS 38 [4f4 3 0 0] 
r 13.647739779 _3_ MAC  --- 0 CTS 38 [4f4 3 0 0] 
s 13.647749779 _3_ MAC  --- 34 ack 118 [13a 2 3 800] ------- [3:0 0:0 32 2] [1 0] 0 0
r 13.648694446 _2_ MAC  --- 34 ack 60 [13a 2 3 800] ------- [3:0 0:0 32 2] [1 0] 1 0
s 13.648704446 _2_ MAC  --- 0 ACK 38 [0 3 0 0] 
r 13.648719446 _2_ RTR  --- 34 ack 60 [13a 2 3 800] ------- [3:0 0:0 32 2] [1 0] 1 0
f 13.648719446 _2_ RTR  --- 34 ack 60 [13a 2 3 800] ------- [3:0 0:0 31 0] [1 0] 1 0
r 13.649009113 _3_ MAC  --- 0 ACK 38 [0 3 0 0] 
s 13.649478446 _2_ MAC  --- 0 RTS 44 [62e 0 2 0] 
r 13.649831113 _0_ MAC  --- 0 RTS 44 [62e 0 2 0] 
s 13.649841113 _0_ MAC  --- 0 CTS 38 [4f4 2 0 0] 
r 13.650145779 _2_ MAC  --- 0 CTS 38 [4f4 2 0 0] 
s 13.650155779 _2_ MAC  --- 34 ack 118 [13a 0 2 800] ------- [3:0 0:0 31 0] [1 0] 1 0
s 13.650287663 _1_ RTR  --- 33 message 32 [0 0 0 0] ------- [1:255 -1:255 32 0] 
r 13.651100446 _0_ MAC  --- 34 ack 60 [13a 0 2 800] ------- [3:0 0:0 31 0] [1 0] 2 0
s 13.651110446 _0_ MAC  --- 0 ACK 38 [0 2 0 0] 
r 13.651125446 _0_ AGT  --- 34 ack 60 [13a 0 2 800] ------- [3:0 0:0 31 0] [1 0] 2 0
s 13.651125446 _0_ AGT  --- 35 tcp 1040 [0 0 0 0] ------- [0:0 3:0 32 0] [2 0] 0 0
r 13.651125446 _0_ RTR  --- 35 tcp 1040 [0 0 0 0] ------- [0:0 3:0 32 0] [2 0] 0 0
s 13.651125446 _0_ RTR  --- 35 tcp 1060 [0 0 0 0] ------- [0:0 3:0 32 2] [2 0] 0 0
s 13.651125446 _0_ AGT  --- 36 tcp 1040 [0 0 0 0] ------- [0:0 3:0 32 0] [3 0] 0 0
r 13.651125446 _0_ RTR  --- 36 tcp 1040 [0 0 0 0] ------- [0:0 3:0 32 0] [3 0] 0 0
s 13.651125446 _0_ RTR  --- 36 tcp 1060 [0 0 0 0] ------- [0:0 3:0 32 2] [3 0] 0 0
r 13.651415113 _2_ MAC  --- 0 ACK 38 [0 2 0 0] 
s 13.651624446 _0_ MAC  --- 0 RTS 44 [256e 2 0 0] 
r 13.651977113 _2_ MAC  --- 0 RTS 44 [256e 2 0 0] 
s 13.651987113 _2_ MAC  --- 0 CTS 38 [2434 0 0 0] 
r 13.652291779 _0_ MAC  --- 0 CTS 38 [2434 0 0 0] 
s 13.652301779 _0_ MAC  --- 35 tcp 1118 [13a 2 0 800] ------- [0:0 3:0 32 2] [2 0] 0 0
r 13.661246446 _2_ MAC  --- 35 tcp 1060 [13a 2 0 800] ------- [0:0 3:0 32 2] [2 0] 1 0
s 13.661256446 _2_ MAC  --- 0 ACK 38 [0 0 0 0] 
r 13.661271446 _2_ RTR  --- 35 tcp 1060 [13a 2 0 800] ------- [0:0 3:0 32 2] [2 0] 1 0
f 13.661271446 _2_ RTR  --- 35 tcp 1060 [13a 2 0 800] ------- [0:0 3:0 31 3] [2 0] 1 0
r 13.661561113 _0_ MAC  --- 0 ACK 38 [0 0 0 0] 
s 13.661711113 _0_ MAC  --- 0 RTS 44 [256e 2 0 0] 
r 13.662063779 _2_ MAC  --- 0 RTS 44 [256e 2 0 0] 
s 13.662073779 _2_ MAC  --- 0 CTS 38 [2434 0 0 0] 
r 13.662378446 _0_ MAC  --- 0 CTS 38 [2434 0 0 0] 
s 13.662388446 _0_ MAC  --- 36 tcp 1118 [13a 2 0 800] ------- [0:0 3:0 32 2] [3 0] 0 0
r 13.671333113 _2_ MAC  --- 36 tcp 1060 [13a 2 0 800] ------- [0:0 3:0 32 2] [3 0] 1 0
s 13.671343113 _2_ MAC  --- 0 ACK 38 [0 0 0 0] 
r 13.671358113 _2_ RTR  --- 36 tcp 1060 [13a 2 0 800] ------- [0:0 3:0 32 2] [3 0] 1 0
f 13.671358113 _2_ RTR  --- 36 tcp 1060 [13a 2 0 800] ------- [0:0 3:0 31 3] [3 0] 1 0
r 13.671647779 _0_ MAC  --- 0 ACK 38 [0 0 0 0] 
s 13.671857113 _2_ MAC  --- 0 RTS 44 [256e 3 2 0] 
r 13.672209779 _3_ MAC  --- 0 RTS 44 [256e 3 2 0] 
s 13.672219779 _3_ MAC  --- 0 CTS 38 [2434 2 0 0] 